&FCI NORB=   14, NELEC=  22, MS2=  0,
&END
0.144892317618 0 0 0 0
0.000151044274 0 0 0 1
0.010423621763 0 1 0 1
0.137122963130 0 0 1 1
0.000012477152 0 1 1 1
0.138967918602 1 1 1 1
-0.000000163816 0 0 0 2
-0.000004975474 0 1 0 2
0.000001874275 1 1 0 2
0.013335513847 0 2 0 2
-0.000018653424 0 0 1 2
0.000003745979 0 1 1 2
0.000002582747 1 1 1 2
-0.006438173868 0 2 1 2
0.029469576500 1 2 1 2
0.140436189562 0 0 2 2
-0.003759123225 0 1 2 2
0.138082336375 1 1 2 2
-0.000005845820 0 2 2 2
-0.000007040406 1 2 2 2
0.145052203683 2 2 2 2
0.000019058831 0 0 0 3
0.000000370960 0 1 0 3
-0.000021175471 1 1 0 3
0.000039380155 0 2 0 3
-0.000280864562 1 2 0 3
-0.000007211076 2 2 0 3
0.000086457647 0 3 0 3
0.000002784465 0 0 1 3
-0.000044738038 0 1 1 3
-0.000003067729 1 1 1 3
-0.000066497627 0 2 1 3
-0.000035964425 1 2 1 3
-0.000002396646 2 2 1 3
0.000041283507 0 3 1 3
0.000884844732 1 3 1 3
-0.000006605206 0 0 2 3
-0.000109968206 0 1 2 3
-0.000012049621 1 1 2 3
0.000003499646 0 2 2 3
0.000010438430 1 2 2 3
0.000052363520 2 2 2 3
-0.000001716585 0 3 2 3
-0.000000307336 1 3 2 3
0.000051502066 2 3 2 3
0.143243442052 0 0 3 3
0.001206101209 0 1 3 3
0.148688417866 1 1 3 3
-0.000137732569 0 2 3 3
-0.000022518958 1 2 3 3
0.142246360279 2 2 3 3
-0.000178895568 0 3 3 3
0.000659780215 1 3 3 3
-0.000262911628 2 3 3 3
0.477671761330 3 3 3 3
0.000002177499 0 0 0 4
-0.000002471376 0 1 0 4
-0.000001643658 1 1 0 4
0.000774567220 0 2 0 4
-0.000867257171 1 2 0 4
-0.000006236549 2 2 0 4
0.000014431923 0 3 0 4
0.000072259401 1 3 0 4
0.000007140351 2 3 0 4
-0.000337114024 3 3 0 4
0.005278950151 0 4 0 4
0.000004456946 0 0 1 4
0.000005566080 0 1 1 4
0.000000816163 1 1 1 4
-0.000044673363 0 2 1 4
-0.000041078929 1 2 1 4
-0.000001420922 2 2 1 4
0.000001988488 0 3 1 4
0.000001538139 1 3 1 4
0.000008194149 2 3 1 4
0.000024971568 3 3 1 4
0.000434132164 0 4 1 4
0.001182176251 1 4 1 4
0.000613603037 0 0 2 4
-0.000019590154 0 1 2 4
-0.000001213897 1 1 2 4
0.000005411708 0 2 2 4
-0.000012444777 1 2 2 4
0.000853394948 2 2 2 4
0.000010170456 0 3 2 4
0.000010709054 1 3 2 4
-0.000000162852 2 3 2 4
0.000038253845 3 3 2 4
0.000009150655 0 4 2 4
0.000002501996 1 4 2 4
0.003313395381 2 4 2 4
0.000008322954 0 0 3 4
0.000009287260 0 1 3 4
-0.000005704796 1 1 3 4
-0.000015498361 0 2 3 4
0.000081203782 1 2 3 4
-0.000003587393 2 2 3 4
0.000008794501 0 3 3 4
0.000014440645 1 3 3 4
0.000017951649 2 3 3 4
-0.000107108332 3 3 3 4
-0.000010860900 0 4 3 4
-0.000012531062 1 4 3 4
0.000021656148 2 4 3 4
0.000069136692 3 4 3 4
0.135341204804 0 0 4 4
0.003268604481 0 1 4 4
0.135753668127 1 1 4 4
0.000010137203 0 2 4 4
0.000007745331 1 2 4 4
0.136401874076 2 2 4 4
-0.000076659669 0 3 4 4
-0.000097482736 1 3 4 4
-0.000027258556 2 3 4 4
0.143244936230 3 3 4 4
-0.000004047866 0 4 4 4
-0.000000138081 1 4 4 4
0.000703007032 2 4 4 4
0.000002290668 3 4 4 4
0.146992070140 4 4 4 4
0.000597471463 0 0 0 5
0.000549543098 0 1 0 5
0.000000692356 1 1 0 5
-0.000011195076 0 2 0 5
-0.000009807502 1 2 0 5
-0.000263795351 2 2 0 5
-0.000190304987 0 3 0 5
0.000071652049 1 3 0 5
-0.000015255143 2 3 0 5
-0.000043603017 3 3 0 5
0.000004573795 0 4 0 5
0.000012513174 1 4 0 5
0.000191421177 2 4 0 5
0.000003046670 3 4 0 5
0.000709973980 4 4 0 5
0.009452829736 0 5 0 5
0.000595843623 0 0 1 5
-0.000003702032 0 1 1 5
0.000001939500 1 1 1 5
-0.000006004813 0 2 1 5
-0.000008407933 1 2 1 5
0.000006009446 2 2 1 5
-0.000185952783 0 3 1 5
0.000012804668 1 3 1 5
-0.000008127914 2 3 1 5
0.000010441623 3 3 1 5
0.000006267103 0 4 1 5
0.000015913934 1 4 1 5
-0.000206336028 2 4 1 5
-0.000032321594 3 4 1 5
-0.000902956996 4 4 1 5
0.001339678815 0 5 1 5
0.007163310907 1 5 1 5
-0.000027046539 0 0 2 5
-0.000007943746 0 1 2 5
-0.000023221105 1 1 2 5
-0.000238554098 0 2 2 5
0.000014400767 1 2 2 5
-0.000020172911 2 2 2 5
-0.000018051571 0 3 2 5
-0.000020516008 1 3 2 5
0.000002249554 2 3 2 5
-0.000123835341 3 3 2 5
0.000404788308 0 4 2 5
-0.000055801361 1 4 2 5
0.000016582930 2 4 2 5
-0.000001909045 3 4 2 5
0.000022415922 4 4 2 5
-0.000008000029 0 5 2 5
-0.000004063755 1 5 2 5
0.011904074222 2 5 2 5
-0.000166523793 0 0 3 5
-0.000048202303 0 1 3 5
-0.000022282023 1 1 3 5
-0.000011141281 0 2 3 5
0.000003685938 1 2 3 5
-0.000062558921 2 2 3 5
-0.000008205443 0 3 3 5
0.000001809092 1 3 3 5
-0.000006008562 2 3 3 5
-0.000606245791 3 3 3 5
0.000000133478 0 4 3 5
-0.000007999424 1 4 3 5
-0.000000314461 2 4 3 5
0.000002725988 3 4 3 5
-0.000000134919 4 4 3 5
0.000032487701 0 5 3 5
0.000018534017 1 5 3 5
-0.000016087071 2 5 3 5
0.000081125700 3 5 3 5
0.000002752545 0 0 4 5
-0.000008220168 0 1 4 5
-0.000007684586 1 1 4 5
0.000296354902 0 2 4 5
0.000380645475 1 2 4 5
-0.000002087351 2 2 4 5
-0.000015178040 0 3 4 5
0.000058556055 1 3 4 5
0.000007195925 2 3 4 5
0.000006703631 3 3 4 5
0.000454119761 0 4 4 5
-0.000250008689 1 4 4 5
0.000013668437 2 4 4 5
0.000010091571 3 4 4 5
-0.000008639757 4 4 4 5
-0.000002323042 0 5 4 5
-0.000003894403 1 5 4 5
0.005093640426 2 5 4 5
-0.000008918824 3 5 4 5
0.005922731275 4 5 4 5
0.138324383390 0 0 5 5
0.000194451418 0 1 5 5
0.137181713047 1 1 5 5
-0.000016549492 0 2 5 5
-0.000016932826 1 2 5 5
0.138815581143 2 2 5 5
0.000001383084 0 3 5 5
0.000009657616 1 3 5 5
-0.000009580662 2 3 5 5
0.142912645881 3 3 5 5
-0.000029972659 0 4 5 5
0.000003026561 1 4 5 5
0.002531251354 2 4 5 5
0.000014558873 3 4 5 5
0.136781577021 4 4 5 5
0.000065754888 0 5 5 5
-0.000169999620 1 5 5 5
0.000000299623 2 5 5 5
-0.000008404147 3 5 5 5
-0.000029109024 4 5 5 5
0.141240009910 5 5 5 5
0.000020434802 0 0 0 6
0.000007382320 0 1 0 6
-0.000011872050 1 1 0 6
0.000003347970 0 2 0 6
-0.000002495692 1 2 0 6
0.000047594009 2 2 0 6
-0.000005884795 0 3 0 6
-0.000016932574 1 3 0 6
0.000011477961 2 3 0 6
-0.000073532824 3 3 0 6
-0.000003932536 0 4 0 6
-0.000001741221 1 4 0 6
0.000059685520 2 4 0 6
-0.000000257682 3 4 0 6
0.000067581561 4 4 0 6
-0.000104990712 0 5 0 6
-0.000036792312 1 5 0 6
-0.000046993440 2 5 0 6
-0.000006195936 3 5 0 6
-0.000020041078 4 5 0 6
0.000182854108 5 5 0 6
0.000503350907 0 6 0 6
0.000036360182 0 0 1 6
-0.000022032926 0 1 1 6
0.000003762854 1 1 1 6
-0.000014155614 0 2 1 6
-0.000002678922 1 2 1 6
-0.000006809805 2 2 1 6
-0.000003105033 0 3 1 6
0.000001545653 1 3 1 6
0.000006986756 2 3 1 6
0.000083022393 3 3 1 6
0.000002824187 0 4 1 6
0.000001150330 1 4 1 6
0.000001742822 2 4 1 6
-0.000004233474 3 4 1 6
0.000000912453 4 4 1 6
0.000015041201 0 5 1 6
-0.000032247537 1 5 1 6
0.000042247752 2 5 1 6
-0.000002870339 3 5 1 6
0.000029373246 4 5 1 6
-0.000006149465 5 5 1 6
0.000075331997 0 6 1 6
0.000507621883 1 6 1 6
-0.000003618692 0 0 2 6
-0.000009172047 0 1 2 6
-0.000000746108 1 1 2 6
0.000026413143 0 2 2 6
-0.000026848614 1 2 2 6
-0.000005253540 2 2 2 6
0.000008012627 0 3 2 6
-0.000006751695 1 3 2 6
-0.000001770326 2 3 2 6
-0.000170012537 3 3 2 6
-0.000031824044 0 4 2 6
0.000030172325 1 4 2 6
-0.000020253913 2 4 2 6
0.000004710287 3 4 2 6
-0.000060186595 4 4 2 6
-0.000009866585 0 5 2 6
0.000002354608 1 5 2 6
-0.000053864940 2 5 2 6
-0.000006407141 3 5 2 6
0.000142356913 4 5 2 6
-0.000018126328 5 5 2 6
-0.000001906436 0 6 2 6
0.000003727175 1 6 2 6
0.000367802107 2 6 2 6
-0.000087147797 0 0 3 6
0.000023632366 0 1 3 6
0.000002771782 1 1 3 6
-0.000084183802 0 2 3 6
0.001359359543 1 2 3 6
-0.000005250262 2 2 3 6
-0.000023507340 0 3 3 6
0.000004308645 1 3 3 6
-0.000014191415 2 3 3 6
0.000069073581 3 3 3 6
-0.000029100563 0 4 3 6
0.000004740888 1 4 3 6
0.000068025428 2 4 3 6
0.000041218773 3 4 3 6
0.000210007753 4 4 3 6
-0.000127507924 0 5 3 6
0.000021847011 1 5 3 6
-0.000095561787 2 5 3 6
0.000052150201 3 5 3 6
-0.000055235979 4 5 3 6
0.000111577866 5 5 3 6
-0.000021237399 0 6 3 6
-0.000821180798 1 6 3 6
-0.000009839213 2 6 3 6
0.011651105216 3 6 3 6
0.000017925025 0 0 4 6
-0.000031283648 0 1 4 6
0.000021409193 1 1 4 6
-0.000088165187 0 2 4 6
0.000432314197 1 2 4 6
0.000003570629 2 2 4 6
-0.000007829563 0 3 4 6
-0.000021723721 1 3 4 6
0.000004379058 2 3 4 6
0.000666686502 3 3 4 6
-0.000072203735 0 4 4 6
-0.000001677952 1 4 4 6
-0.000010137273 2 4 4 6
0.000019496091 3 4 4 6
-0.000030067728 4 4 4 6
-0.000021888336 0 5 4 6
0.000011904883 1 5 4 6
-0.000032256353 2 5 4 6
-0.000005177097 3 5 4 6
-0.000033314542 4 5 4 6
-0.000006238175 5 5 4 6
-0.000001644545 0 6 4 6
-0.000000965795 1 6 4 6
0.000017106929 2 6 4 6
0.000017427502 3 6 4 6
0.000407031131 4 6 4 6
-0.000031265452 0 0 5 6
-0.000006334149 0 1 5 6
0.000030386560 1 1 5 6
-0.000036209311 0 2 5 6
0.000049867789 1 2 5 6
-0.000015139484 2 2 5 6
-0.000008636880 0 3 5 6
-0.000008064017 1 3 5 6
-0.000007829185 2 3 5 6
0.000829930646 3 3 5 6
0.000024457694 0 4 5 6
0.000000407415 1 4 5 6
0.000022469578 2 4 5 6
-0.000006061400 3 4 5 6
0.000094501507 4 4 5 6
0.000162051575 0 5 5 6
0.000023450455 1 5 5 6
-0.000032588612 2 5 5 6
0.000009367623 3 5 5 6
-0.000060828907 4 5 5 6
0.000009075271 5 5 5 6
-0.000112830102 0 6 5 6
-0.000114676048 1 6 5 6
-0.000021936501 2 6 5 6
-0.000023966872 3 6 5 6
-0.000008970915 4 6 5 6
0.000311059009 5 6 5 6
0.141753743210 0 0 6 6
0.000929992090 0 1 6 6
0.144951262928 1 1 6 6
-0.000493935058 0 2 6 6
0.000151655783 1 2 6 6
0.141478771655 2 2 6 6
-0.000337006906 0 3 6 6
-0.004605687168 1 3 6 6
-0.000175680464 2 3 6 6
0.364271709017 3 3 6 6
-0.000789433554 0 4 6 6
0.000005130112 1 4 6 6
0.000151158930 2 4 6 6
-0.000173295725 3 4 6 6
0.141670787780 4 4 6 6
-0.001689304592 0 5 6 6
-0.000892821338 1 5 6 6
-0.000281971099 2 5 6 6
-0.000452891593 3 5 6 6
-0.001176444991 4 5 6 6
0.140765847130 5 5 6 6
0.000152553277 0 6 6 6
0.000045711294 1 6 6 6
0.000214686430 2 6 6 6
0.000012853577 3 6 6 6
0.000836464406 4 6 6 6
0.000893773093 5 6 6 6
0.378975714073 6 6 6 6
0.000283988245 0 0 0 7
0.000199219040 0 1 0 7
-0.000262196942 1 1 0 7
-0.000000965996 0 2 0 7
-0.000004571137 1 2 0 7
0.000381567939 2 2 0 7
0.000010352300 0 3 0 7
0.000004531185 1 3 0 7
0.000007352201 2 3 0 7
-0.000646600447 3 3 0 7
-0.000002625132 0 4 0 7
-0.000001573128 1 4 0 7
-0.000040214809 2 4 0 7
-0.000007056256 3 4 0 7
0.000150062681 4 4 0 7
-0.000117649301 0 5 0 7
0.000012028159 1 5 0 7
-0.000007338563 2 5 0 7
-0.000032338298 3 5 0 7
-0.000010265570 4 5 0 7
-0.000084500788 5 5 0 7
-0.000017561227 0 6 0 7
-0.000042160979 1 6 0 7
0.000000716287 2 6 0 7
-0.000018437781 3 6 0 7
-0.000003984434 4 6 0 7
0.000017937225 5 6 0 7
-0.000364275984 6 6 0 7
0.001559356530 0 7 0 7
0.000910853484 0 0 1 7
-0.000186422264 0 1 1 7
0.000158072809 1 1 1 7
-0.000000208285 0 2 1 7
-0.000000368845 1 2 1 7
0.000911122175 2 2 1 7
0.000002142273 0 3 1 7
-0.000000837373 1 3 1 7
0.000001063408 2 3 1 7
0.003123122566 3 3 1 7
-0.000001708930 0 4 1 7
0.000000677546 1 4 1 7
-0.000002676593 2 4 1 7
-0.000001391543 3 4 1 7
0.000257333704 4 4 1 7
-0.000005663899 0 5 1 7
-0.000003909377 1 5 1 7
-0.000031486365 2 5 1 7
0.000053919777 3 5 1 7
-0.000013686220 4 5 1 7
0.000175008352 5 5 1 7
-0.000039990761 0 6 1 7
-0.000000156233 1 6 1 7
-0.000000390265 2 6 1 7
-0.000001870029 3 6 1 7
0.000010708138 4 6 1 7
0.000066629265 5 6 1 7
0.002720280697 6 6 1 7
-0.000498758969 0 7 1 7
0.001175605132 1 7 1 7
-0.000009362805 0 0 2 7
-0.000000757459 0 1 2 7
-0.000000041849 1 1 2 7
0.000074441440 0 2 2 7
0.001407907407 1 2 2 7
-0.000005474919 2 2 2 7
-0.000005187825 0 3 2 7
-0.000010008746 1 3 2 7
-0.000003713042 2 3 2 7
-0.000010037830 3 3 2 7
-0.000110700304 0 4 2 7
-0.000119519304 1 4 2 7
0.000002158264 2 4 2 7
0.000003179763 3 4 2 7
0.000014422580 4 4 2 7
-0.000000296981 0 5 2 7
-0.000030687432 1 5 2 7
0.000028943314 2 5 2 7
0.000008515879 3 5 2 7
0.000181116716 4 5 2 7
-0.000006661518 5 5 2 7
-0.000002328421 0 6 2 7
-0.000002306983 1 6 2 7
-0.000017462810 2 6 2 7
0.000085654596 3 6 2 7
0.000027276843 4 6 2 7
0.000005567593 5 6 2 7
-0.000020070360 6 6 2 7
0.000000513310 0 7 2 7
-0.000001977583 1 7 2 7
0.001399759068 2 7 2 7
0.000035182290 0 0 3 7
0.000153525525 0 1 3 7
-0.000004569034 1 1 3 7
0.000042569312 0 2 3 7
-0.000028222646 1 2 3 7
-0.000032450331 2 2 3 7
-0.000010428628 0 3 3 7
0.000539731825 1 3 3 7
-0.000002432294 2 3 3 7
0.000553342847 3 3 3 7
-0.000045590411 0 4 3 7
-0.000006483077 1 4 3 7
0.000012764690 2 4 3 7
0.000003234292 3 4 3 7
-0.000061907627 4 4 3 7
-0.000688857103 0 5 3 7
0.000551412248 1 5 3 7
0.000109948737 2 5 3 7
0.000005553974 3 5 3 7
0.000076750162 4 5 3 7
0.000042294354 5 5 3 7
-0.000017987986 0 6 3 7
0.000001791024 1 6 3 7
-0.000033566863 2 6 3 7
0.000002752717 3 6 3 7
-0.000018512486 4 6 3 7
-0.000015779909 5 6 3 7
-0.003145821170 6 6 3 7
-0.000035890531 0 7 3 7
-0.000011284709 1 7 3 7
0.000012087659 2 7 3 7
0.001084603072 3 7 3 7
0.000010311455 0 0 4 7
-0.000020749695 0 1 4 7
0.000000141559 1 1 4 7
0.000053786849 0 2 4 7
-0.002034614595 1 2 4 7
0.000021481023 2 2 4 7
0.000010724693 0 3 4 7
-0.000018914025 1 3 4 7
-0.000010138566 2 3 4 7
0.000120841152 3 3 4 7
-0.001008929953 0 4 4 7
-0.000059394740 1 4 4 7
0.000006366420 2 4 4 7
-0.000024568924 3 4 4 7
-0.000002576407 4 4 4 7
-0.000001017613 0 5 4 7
-0.000009861145 1 5 4 7
0.000170260541 2 5 4 7
0.000009180231 3 5 4 7
-0.000044317184 4 5 4 7
0.000018156018 5 5 4 7
-0.000002584430 0 6 4 7
0.000004324810 1 6 4 7
0.000014577076 2 6 4 7
-0.000122991886 3 6 4 7
0.000004611908 4 6 4 7
-0.000014371992 5 6 4 7
0.000258720956 6 6 4 7
0.000001228597 0 7 4 7
0.000003180471 1 7 4 7
-0.000119410148 2 7 4 7
0.000013630793 3 7 4 7
0.001203262022 4 7 4 7
-0.000032205355 0 0 5 7
0.000001453938 0 1 5 7
-0.000000418520 1 1 5 7
0.000187731908 0 2 5 7
-0.000427771695 1 2 5 7
-0.000002152445 2 2 5 7
-0.000023327744 0 3 5 7
0.000098814674 1 3 5 7
0.000009540479 2 3 5 7
0.000015220146 3 3 5 7
0.000003572186 0 4 5 7
0.000003217713 1 4 5 7
0.000060296785 2 4 5 7
0.000020119293 3 4 5 7
0.000147557294 4 4 5 7
0.000452988250 0 5 5 7
-0.000438508328 1 5 5 7
-0.000013273385 2 5 5 7
0.000012002537 3 5 5 7
-0.000023756323 4 5 5 7
0.000018229644 5 5 5 7
0.000016943188 0 6 5 7
0.000075336104 1 6 5 7
0.000005189923 2 6 5 7
-0.000038946614 3 6 5 7
-0.000003550380 4 6 5 7
0.000030788147 5 6 5 7
-0.000071855001 6 6 5 7
-0.000003664706 0 7 5 7
0.000061402843 1 7 5 7
-0.000011553892 2 7 5 7
-0.000166616849 3 7 5 7
0.000033761463 4 7 5 7
0.001050186220 5 7 5 7
0.000023032210 0 0 6 7
-0.000458117432 0 1 6 7
-0.000006257218 1 1 6 7
-0.000017057557 0 2 6 7
0.000062981368 1 2 6 7
-0.000085019504 2 2 6 7
-0.000017769103 0 3 6 7
0.000005269516 1 3 6 7
-0.000002128449 2 3 6 7
-0.000067156518 3 3 6 7
0.000023010854 0 4 6 7
0.000003550514 1 4 6 7
0.000008897232 2 4 6 7
-0.000008164507 3 4 6 7
0.000101859357 4 4 6 7
0.000199418744 0 5 6 7
0.000485201917 1 5 6 7
0.000004525839 2 5 6 7
-0.000005378979 3 5 6 7
0.000013365449 4 5 6 7
0.000045087248 5 5 6 7
0.000098872873 0 6 6 7
0.000255785195 1 6 6 7
-0.000010672613 2 6 6 7
-0.000857147094 3 6 6 7
0.000027261617 4 6 6 7
0.000021753178 5 6 6 7
-0.000105906542 6 6 6 7
-0.000056193183 0 7 6 7
-0.000029278314 1 7 6 7
0.000008871668 2 7 6 7
0.000005668799 3 7 6 7
-0.000007443121 4 7 6 7
-0.000020412437 5 7 6 7
0.001536077514 6 7 6 7
0.133516401339 0 0 7 7
-0.007349291807 0 1 7 7
0.131799821587 1 1 7 7
0.000002341604 0 2 7 7
-0.000015159455 1 2 7 7
0.135303728321 2 2 7 7
-0.000058191835 0 3 7 7
0.000004391705 1 3 7 7
0.000066253324 2 3 7 7
0.146833229066 3 3 7 7
-0.000001972191 0 4 7 7
0.000004898967 1 4 7 7
-0.000033719190 2 4 7 7
-0.000012224382 3 4 7 7
0.126935564192 4 4 7 7
-0.000036105454 0 5 7 7
0.000459650190 1 5 7 7
0.000066775961 2 5 7 7
-0.000098841748 3 5 7 7
0.000023520153 4 5 7 7
0.130585603573 5 5 7 7
-0.000056200514 0 6 7 7
0.000006383069 1 6 7 7
0.000011534512 2 6 7 7
-0.000012172101 3 6 7 7
0.000067630690 4 6 7 7
0.000032826209 5 6 7 7
0.143346071427 6 6 7 7
-0.000554255487 0 7 7 7
0.000706370518 1 7 7 7
-0.000014552203 2 7 7 7
-0.000001553209 3 7 7 7
0.000045142096 4 7 7 7
-0.000053663053 5 7 7 7
0.000137565274 6 7 7 7
0.140209811653 7 7 7 7
0.000043236706 0 0 0 8
0.000016869762 0 1 0 8
-0.000010549085 1 1 0 8
0.000010619363 0 2 0 8
-0.000001886891 1 2 0 8
0.000032920644 2 2 0 8
0.000025527823 0 3 0 8
0.000005029391 1 3 0 8
0.000003592208 2 3 0 8
-0.000055314317 3 3 0 8
0.000003665187 0 4 0 8
-0.000002361242 1 4 0 8
0.000051469559 2 4 0 8
-0.000006912811 3 4 0 8
-0.000117456562 4 4 0 8
0.000035107515 0 5 0 8
-0.000106623169 1 5 0 8
0.000000676421 2 5 0 8
-0.000012882016 3 5 0 8
-0.000001632795 4 5 0 8
0.000092587864 5 5 0 8
-0.000031857308 0 6 0 8
-0.000025333561 1 6 0 8
0.000010296524 2 6 0 8
0.000042913373 3 6 0 8
-0.000004941338 4 6 0 8
0.000086150052 5 6 0 8
-0.000030863452 6 6 0 8
-0.000002911035 0 7 0 8
-0.000003033125 1 7 0 8
-0.000004748314 2 7 0 8
0.000004526272 3 7 0 8
0.000003448607 4 7 0 8
0.000023953281 5 7 0 8
-0.000085036999 6 7 0 8
0.000021390780 7 7 0 8
0.000977360664 0 8 0 8
-0.000001279549 0 0 1 8
-0.000006170249 0 1 1 8
0.000000333063 1 1 1 8
0.000000429395 0 2 1 8
-0.000008044211 1 2 1 8
-0.000001270159 2 2 1 8
0.000001337149 0 3 1 8
0.000007841081 1 3 1 8
0.000001396446 2 3 1 8
-0.000607764078 3 3 1 8
-0.000003829628 0 4 1 8
-0.000001096674 1 4 1 8
0.000000647662 2 4 1 8
-0.000001842009 3 4 1 8
0.000170089449 4 4 1 8
-0.000200673698 0 5 1 8
0.000009259452 1 5 1 8
-0.000001243856 2 5 1 8
-0.000000660251 3 5 1 8
0.000000225462 4 5 1 8
-0.000010260638 5 5 1 8
-0.000009032468 0 6 1 8
-0.000002138398 1 6 1 8
0.000042631216 2 6 1 8
0.000045115137 3 6 1 8
-0.000003017587 4 6 1 8
-0.000040931770 5 6 1 8
0.000046722310 6 6 1 8
-0.000002712502 0 7 1 8
0.000000417238 1 7 1 8
0.000000711066 2 7 1 8
-0.000053055129 3 7 1 8
-0.000000753302 4 7 1 8
-0.000110351055 5 7 1 8
0.000051623955 6 7 1 8
-0.000050362915 7 7 1 8
0.000193352898 0 8 1 8
0.001194051619 1 8 1 8
0.000000667821 0 0 2 8
-0.000004608877 0 1 2 8
-0.000003788698 1 1 2 8
0.000039960859 0 2 2 8
-0.000003890746 1 2 2 8
0.000001525105 2 2 2 8
0.000001529132 0 3 2 8
0.000002415239 1 3 2 8
0.000015760866 2 3 2 8
-0.000006456138 3 3 2 8
0.000033717426 0 4 2 8
0.000036326335 1 4 2 8
-0.000002343467 2 4 2 8
-0.000041743605 3 4 2 8
-0.000002163101 4 4 2 8
-0.000000631583 0 5 2 8
-0.000001289262 1 5 2 8
0.000026346304 2 5 2 8
-0.000006718792 3 5 2 8
0.000028413510 4 5 2 8
-0.000007362497 5 5 2 8
0.000006964486 0 6 2 8
0.000024862714 1 6 2 8
0.000030186022 2 6 2 8
0.000009485952 3 6 2 8
0.000000496557 4 6 2 8
-0.000013257993 5 6 2 8
-0.000002589047 6 6 2 8
-0.000002098775 0 7 2 8
0.000001335063 1 7 2 8
-0.000017581174 2 7 2 8
0.000005733081 3 7 2 8
-0.000038127488 4 7 2 8
0.000000230891 5 7 2 8
-0.000006213992 6 7 2 8
-0.000009457329 7 7 2 8
0.000000764125 0 8 2 8
0.000001696729 1 8 2 8
0.000821761808 2 8 2 8
-0.000457014410 0 0 3 8
0.000096224706 0 1 3 8
-0.000472565252 1 1 3 8
-0.000105265279 0 2 3 8
0.000088970247 1 2 3 8
-0.000481948775 2 2 3 8
-0.000022590424 0 3 3 8
-0.000646410018 1 3 3 8
0.000010415190 2 3 3 8
-0.009912865111 3 3 3 8
-0.000296817865 0 4 3 8
-0.000005178952 1 4 3 8
-0.000235674101 2 4 3 8
-0.000028482917 3 4 3 8
-0.000247479213 4 4 3 8
-0.000112978748 0 5 3 8
-0.000009925037 1 5 3 8
-0.000085377166 2 5 3 8
0.000010921030 3 5 3 8
-0.000243838331 4 5 3 8
-0.000651142065 5 5 3 8
-0.000036939364 0 6 3 8
-0.000009265530 1 6 3 8
0.000018375523 2 6 3 8
0.000075349419 3 6 3 8
0.000006856439 4 6 3 8
-0.000027909973 5 6 3 8
-0.001915034191 6 6 3 8
0.000010795978 0 7 3 8
-0.000121624985 1 7 3 8
0.000008085814 2 7 3 8
-0.000494371343 3 7 3 8
0.000083996492 4 7 3 8
0.000009733091 5 7 3 8
0.000005500965 6 7 3 8
-0.000661045861 7 7 3 8
-0.000014693414 0 8 3 8
0.000018628024 1 8 3 8
-0.000015732884 2 8 3 8
0.002307060171 3 8 3 8
-0.000015352321 0 0 4 8
-0.000009808671 0 1 4 8
-0.000022456249 1 1 4 8
0.000093481306 0 2 4 8
0.000679845832 1 2 4 8
-0.000016519360 2 2 4 8
-0.000014845111 0 3 4 8
-0.000008360980 1 3 4 8
-0.000046682678 2 3 4 8
-0.000356582163 3 3 4 8
0.000256548199 0 4 4 8
-0.000050877885 1 4 4 8
-0.000000324403 2 4 4 8
0.000038812832 3 4 4 8
-0.000039619566 4 4 4 8
0.000001157975 0 5 4 8
0.000000156442 1 5 4 8
-0.000018975976 2 5 4 8
0.000011929801 3 5 4 8
-0.000094517674 4 5 4 8
-0.000021948115 5 5 4 8
-0.000010959707 0 6 4 8
-0.000007994957 1 6 4 8
-0.000051177983 2 6 4 8
0.000046499256 3 6 4 8
0.000107841015 4 6 4 8
0.000000518206 5 6 4 8
-0.000115578748 6 6 4 8
-0.000001440859 0 7 4 8
-0.000001552659 1 7 4 8
0.000050938486 2 7 4 8
0.000010914883 3 7 4 8
-0.000287909069 4 7 4 8
-0.000011052009 5 7 4 8
-0.000017978388 6 7 4 8
-0.000021261393 7 7 4 8
-0.000013759172 0 8 4 8
0.000001214549 1 8 4 8
-0.000300294514 2 8 4 8
0.000025871966 3 8 4 8
0.001331855722 4 8 4 8
0.000216120833 0 0 5 8
-0.000260727888 0 1 5 8
0.000002360503 1 1 5 8
0.000007650485 0 2 5 8
-0.000008070362 1 2 5 8
0.000154599884 2 2 5 8
-0.000012482624 0 3 5 8
0.000000728382 1 3 5 8
-0.000010419044 2 3 5 8
-0.000093041977 3 3 5 8
0.000001080972 0 4 5 8
-0.000000694226 1 4 5 8
-0.000005205202 2 4 5 8
0.000003620150 3 4 5 8
-0.000083710055 4 4 5 8
0.000150537925 0 5 5 8
0.000068152307 1 5 5 8
0.000004415649 2 5 5 8
-0.000010497585 3 5 5 8
0.000002572790 4 5 5 8
-0.000008093753 5 5 5 8
0.000088444810 0 6 5 8
0.000082156523 1 6 5 8
-0.000011056799 2 6 5 8
-0.000152763294 3 6 5 8
-0.000006514582 4 6 5 8
-0.000005889417 5 6 5 8
-0.000087141322 6 6 5 8
0.000009736710 0 7 5 8
-0.000047051219 1 7 5 8
-0.000000606587 2 7 5 8
0.000006118009 3 7 5 8
-0.000002479441 4 7 5 8
0.000049469139 5 7 5 8
0.000109057445 6 7 5 8
0.000286795029 7 7 5 8
0.000085915944 0 8 5 8
0.000017786380 1 8 5 8
-0.000006407772 2 8 5 8
-0.000011637586 3 8 5 8
0.000004482478 4 8 5 8
0.000834845836 5 8 5 8
-0.000646703609 0 0 6 8
-0.000895476104 0 1 6 8
0.000047821883 1 1 6 8
-0.000021169809 0 2 6 8
0.001150325691 1 2 6 8
0.000371858951 2 2 6 8
-0.000094706432 0 3 6 8
-0.000048761913 1 3 6 8
0.000027069916 2 3 6 8
0.000881844152 3 3 6 8
-0.000003630590 0 4 6 8
0.000004300836 1 4 6 8
-0.000138373380 2 4 6 8
-0.000010662019 3 4 6 8
0.001081415020 4 4 6 8
0.000346715717 0 5 6 8
0.000014009451 1 5 6 8
-0.000119690826 2 5 6 8
-0.000033699674 3 5 6 8
-0.000057000195 4 5 6 8
0.000086475891 5 5 6 8
0.000000648294 0 6 6 8
-0.000012546512 1 6 6 8
0.000001840282 2 6 6 8
0.000023903198 3 6 6 8
-0.000011597814 4 6 6 8
-0.000016373105 5 6 6 8
0.000874180038 6 6 6 8
0.000129113535 0 7 6 8
0.000048242228 1 7 6 8
0.000092792863 2 7 6 8
0.000040160463 3 7 6 8
-0.000125885103 4 7 6 8
-0.000048105214 5 7 6 8
0.000015727997 6 7 6 8
0.000188487562 7 7 6 8
0.000005860906 0 8 6 8
-0.000007172492 1 8 6 8
0.000011317668 2 8 6 8
-0.000004553963 3 8 6 8
0.000033675122 4 8 6 8
-0.000109190374 5 8 6 8
0.003097066504 6 8 6 8
0.000129617311 0 0 7 8
0.000078136908 0 1 7 8
-0.000002248096 1 1 7 8
-0.000079531399 0 2 7 8
0.000010110067 1 2 7 8
-0.000101812540 2 2 7 8
0.000022071828 0 3 7 8
-0.000047789262 1 3 7 8
0.000007165914 2 3 7 8
-0.000785494340 3 3 7 8
-0.000023301799 0 4 7 8
0.000010419571 1 4 7 8
-0.000059814062 2 4 7 8
0.000025768298 3 4 7 8
-0.001077188757 4 4 7 8
0.000438277023 0 5 7 8
-0.000574650815 1 5 7 8
-0.000013515035 2 5 7 8
0.000006532554 3 5 7 8
-0.000000096330 4 5 7 8
0.000209744012 5 5 7 8
0.000049697152 0 6 7 8
-0.000014787057 1 6 7 8
0.000024746663 2 6 7 8
0.000081190810 3 6 7 8
-0.000002003004 4 6 7 8
0.000177986343 5 6 7 8
0.000145268565 6 6 7 8
-0.000073418514 0 7 7 8
-0.000037536353 1 7 7 8
-0.000025693706 2 7 7 8
0.000190829653 3 7 7 8
0.000028750921 4 7 7 8
0.000223244878 5 7 7 8
0.000084181706 6 7 7 8
-0.000020368918 7 7 7 8
0.000057727008 0 8 7 8
-0.001095196051 1 8 7 8
0.000007089787 2 8 7 8
0.000087553394 3 8 7 8
-0.000019911599 4 8 7 8
-0.000112482057 5 8 7 8
-0.000052138607 6 8 7 8
0.008612101644 7 8 7 8
0.127434760311 0 0 8 8
0.004261755143 0 1 8 8
0.132517688781 1 1 8 8
-0.000122119452 0 2 8 8
0.000057804072 1 2 8 8
0.126502884467 2 2 8 8
-0.000069792936 0 3 8 8
-0.000066553132 1 3 8 8
-0.000082590950 2 3 8 8
0.164086247764 3 3 8 8
-0.000461548121 0 4 8 8
-0.000001703966 1 4 8 8
-0.002238042333 2 4 8 8
-0.000036376832 3 4 8 8
0.132378745585 4 4 8 8
0.000761691016 0 5 8 8
0.000125541656 1 5 8 8
-0.000097872938 2 5 8 8
-0.000028619292 3 5 8 8
-0.000061018533 4 5 8 8
0.128549343432 5 5 8 8
-0.000034383239 0 6 8 8
0.000011455512 1 6 8 8
0.000029503722 2 6 8 8
0.000003898296 3 6 8 8
0.000046252222 4 6 8 8
0.000085687819 5 6 8 8
0.155505073895 6 6 8 8
-0.000617578617 0 7 8 8
-0.000557947280 1 7 8 8
0.000005435406 2 7 8 8
0.000065846670 3 7 8 8
0.000121650203 4 7 8 8
-0.000076558443 5 7 8 8
-0.000080920156 6 7 8 8
0.124868020658 7 7 8 8
-0.000078993734 0 8 8 8
0.000095521562 1 8 8 8
0.000021873339 2 8 8 8
-0.000794572553 3 8 8 8
-0.000089045820 4 8 8 8
-0.000223350403 5 8 8 8
0.000006341554 6 8 8 8
0.000038745409 7 8 8 8
0.141614367003 8 8 8 8
-0.000168698752 0 0 0 9
0.000018529985 0 1 0 9
0.000043739387 1 1 0 9
0.000003743810 0 2 0 9
-0.000003471962 1 2 0 9
-0.000003261345 2 2 0 9
-0.000254457696 0 3 0 9
-0.000004841356 1 3 0 9
0.000005639493 2 3 0 9
0.000096584766 3 3 0 9
0.000002630395 0 4 0 9
-0.000001891316 1 4 0 9
-0.000043687457 2 4 0 9
-0.000016565618 3 4 0 9
0.000028041908 4 4 0 9
-0.000200753255 0 5 0 9
-0.000351627043 1 5 0 9
0.000003293636 2 5 0 9
0.000022181443 3 5 0 9
-0.000005427449 4 5 0 9
-0.000054914569 5 5 0 9
0.000015625006 0 6 0 9
0.000002117729 1 6 0 9
-0.000013679319 2 6 0 9
0.000006933741 3 6 0 9
0.000003158953 4 6 0 9
0.000051508588 5 6 0 9
0.000190338451 6 6 0 9
-0.000044798308 0 7 0 9
-0.000027021738 1 7 0 9
-0.000010813214 2 7 0 9
0.000082013956 3 7 0 9
0.000002924685 4 7 0 9
0.000165476643 5 7 0 9
-0.000013310348 6 7 0 9
0.000055916981 7 7 0 9
-0.000002957017 0 8 0 9
0.000002721385 1 8 0 9
0.000000413102 2 8 0 9
-0.000012606676 3 8 0 9
0.000004877477 4 8 0 9
0.000061864972 5 8 0 9
0.000074762004 6 8 0 9
0.000002484889 7 8 0 9
0.000126787290 8 8 0 9
0.001263880310 0 9 0 9
-0.000020129776 0 0 1 9
0.000035489801 0 1 1 9
-0.000000745738 1 1 1 9
-0.000003272734 0 2 1 9
0.000007156196 1 2 1 9
-0.000002742671 2 2 1 9
0.000009659390 0 3 1 9
-0.000069398833 1 3 1 9
0.000001580621 2 3 1 9
0.000130473170 3 3 1 9
-0.000003262196 0 4 1 9
-0.000001652756 1 4 1 9
0.000001185580 2 4 1 9
0.000002014268 3 4 1 9
-0.000124373101 4 4 1 9
-0.001020879705 0 5 1 9
0.000021547169 1 5 1 9
-0.000001272294 2 5 1 9
-0.000000128669 3 5 1 9
0.000007683010 4 5 1 9
0.000008139075 5 5 1 9
0.000007181834 0 6 1 9
0.000000142467 1 6 1 9
-0.000044120195 2 6 1 9
-0.000001712488 3 6 1 9
-0.000000931301 4 6 1 9
-0.000023219979 5 6 1 9
-0.000739169104 6 6 1 9
-0.000027827788 0 7 1 9
-0.000000737998 1 7 1 9
0.000002546723 2 7 1 9
0.000383781488 3 7 1 9
0.000000308100 4 7 1 9
-0.000425765322 5 7 1 9
0.000012505484 6 7 1 9
0.000051854285 7 7 1 9
0.000003229370 0 8 1 9
0.000001116454 1 8 1 9
-0.000000864318 2 8 1 9
-0.000143019626 3 8 1 9
-0.000000255481 4 8 1 9
-0.000001811219 5 8 1 9
-0.000120795828 6 8 1 9
0.000024374598 7 8 1 9
-0.000153862905 8 8 1 9
0.000088375938 0 9 1 9
0.001190082741 1 9 1 9
-0.000001932105 0 0 2 9
-0.000000960702 0 1 2 9
-0.000000923581 1 1 2 9
-0.000071120992 0 2 2 9
-0.000002297197 1 2 2 9
-0.000001458584 2 2 2 9
0.000002488293 0 3 2 9
0.000003213574 1 3 2 9
-0.000160650896 2 3 2 9
-0.000080868571 3 3 2 9
-0.000024775250 0 4 2 9
-0.000039310832 1 4 2 9
-0.000001122627 2 4 2 9
-0.000056644109 3 4 2 9
0.000000377714 4 4 2 9
0.000000399558 0 5 2 9
-0.000002811359 1 5 2 9
0.000038428535 2 5 2 9
0.000020155840 3 5 2 9
-0.000046762522 4 5 2 9
0.000011152881 5 5 2 9
-0.000011864313 0 6 2 9
-0.000029163326 1 6 2 9
0.000005532539 2 6 2 9
0.000001721976 3 6 2 9
-0.000022344975 4 6 2 9
0.000003288450 5 6 2 9
-0.000106846647 6 6 2 9
-0.000009058608 0 7 2 9
0.000000330672 1 7 2 9
0.000020227867 2 7 2 9
0.000004885144 3 7 2 9
0.000012404130 4 7 2 9
-0.000007658010 5 7 2 9
-0.000002711810 6 7 2 9
0.000012845649 7 7 2 9
0.000000511506 0 8 2 9
-0.000000912115 1 8 2 9
0.000013609774 2 8 2 9
-0.000025836436 3 8 2 9
0.000112967043 4 8 2 9
-0.000001389548 5 8 2 9
-0.000000043374 6 8 2 9
-0.000000870073 7 8 2 9
-0.000027049445 8 8 2 9
0.000001238068 0 9 2 9
-0.000000979852 1 9 2 9
0.000875124344 2 9 2 9
0.003662754806 0 0 3 9
-0.000489116873 0 1 3 9
0.003900246603 1 1 3 9
-0.000135381483 0 2 3 9
0.000083383738 1 2 3 9
0.003828058993 2 2 3 9
-0.000039992814 0 3 3 9
0.000074834098 1 3 3 9
-0.000054864698 2 3 3 9
0.081441071198 3 3 3 9
-0.000625409493 0 4 3 9
-0.000002143032 1 4 3 9
-0.000300685575 2 4 3 9
-0.000034419656 3 4 3 9
0.002842994401 4 4 3 9
0.000141059844 0 5 3 9
0.000002103007 1 5 3 9
0.000129856376 2 5 3 9
-0.000174150798 3 5 3 9
0.000031767373 4 5 3 9
0.002507648262 5 5 3 9
0.000010158200 0 6 3 9
0.000016211744 1 6 3 9
-0.000018040943 2 6 3 9
0.000024835222 3 6 3 9
0.000161988279 4 6 3 9
0.000172200698 5 6 3 9
0.055395539278 6 6 3 9
0.000082068810 0 7 3 9
0.000960356790 1 7 3 9
0.000006478714 2 7 3 9
0.000105208690 3 7 3 9
0.000219576188 4 7 3 9
-0.000017415763 5 7 3 9
-0.000010328678 6 7 3 9
0.005334343759 7 7 3 9
-0.000008780350 0 8 3 9
-0.000143722953 1 8 3 9
-0.000031027912 2 8 3 9
-0.002212272033 3 8 3 9
-0.000171374053 4 8 3 9
0.000019515422 5 8 3 9
0.000099654754 6 8 3 9
-0.000154961899 7 8 3 9
0.007812008867 8 8 3 9
0.000002314924 0 9 3 9
-0.000023349731 1 9 3 9
0.000003855651 2 9 3 9
0.020274763530 3 9 3 9
0.000001198918 0 0 4 9
-0.000005561427 0 1 4 9
-0.000004694724 1 1 4 9
-0.000015192258 0 2 4 9
-0.000710777125 1 2 4 9
-0.000001524938 2 2 4 9
-0.000007535660 0 3 4 9
-0.000008112120 1 3 4 9
-0.000068821726 2 3 4 9
-0.000056233570 3 3 4 9
-0.000119619514 0 4 4 9
0.000038526656 1 4 4 9
0.000001633007 2 4 4 9
-0.000239999538 3 4 4 9
-0.000011004856 4 4 4 9
-0.000003101753 0 5 4 9
0.000008438759 1 5 4 9
-0.000354551489 2 5 4 9
-0.000004061359 3 5 4 9
-0.000406702341 4 5 4 9
0.000006357777 5 5 4 9
0.000000408141 0 6 4 9
0.000003190025 1 6 4 9
-0.000038094399 2 6 4 9
-0.000039658704 3 6 4 9
-0.000073236561 4 6 4 9
0.000011498441 5 6 4 9
0.000138549618 6 6 4 9
0.000000563970 0 7 4 9
0.000000757245 1 7 4 9
-0.000064005566 2 7 4 9
0.000014815661 3 7 4 9
0.000115506377 4 7 4 9
0.000000144975 5 7 4 9
0.000007330547 6 7 4 9
0.000003287895 7 7 4 9
0.000004432461 0 8 4 9
0.000000004431 1 8 4 9
0.000105564466 2 8 4 9
0.000048617126 3 8 4 9
-0.000053267399 4 8 4 9
0.000001056443 5 8 4 9
-0.000035486024 6 8 4 9
0.000000320486 7 8 4 9
0.000006067210 8 8 4 9
0.000015452300 0 9 4 9
0.000001868866 1 9 4 9
0.000209768326 2 9 4 9
-0.000005034509 3 9 4 9
0.001138547075 4 9 4 9