 &FCI NORB=  29,NELEC=45,MS2=3,
  ORBSYM=1,1,1,1,1,1,1,1,1,1,1,1,1,1,1,1,1,1,1,1,1,1,1,1,1,1,1,1,1,
  ISYM=1,
 &END
 0.6308215607651051    1    1    1    1
 -0.009718380999149904    2    1    1    1
 0.0005515153349267607    2    1    2    1
 0.1277587698982066    2    2    1    1
 0.004195216251505797    2    2    2    1
 0.5989312665523473    2    2    2    2
 -0.08842255376699115    3    1    1    1
 0.007855611236946686    3    1    2    1
 0.0169871480429872    3    1    2    2
 0.1659511082478703    3    1    3    1
 0.01294572178146541    3    2    1    1
 -0.0002402476422269243    3    2    2    1
 -0.01076865473379734    3    2    2    2
 -0.002719004325846792    3    2    3    1
 0.0009331965434535195    3    2    3    2
 0.5082726986810114    3    3    1    1
 -0.002035115388952697    3    3    2    1
 0.1459281332375318    3    3    2    2
 0.07505338950428966    3    3    3    1
 0.008827891887718004    3    3    3    2
 0.5790061692612183    3    3    3    3
 0.02047517251551235    4    1    1    1
 -0.001541025056375166    4    1    2    1
 -0.005349223937503167    4    1    2    2
 -0.02492848057354683    4    1    3    1
 0.0002576104073539788    4    1    3    2
 -0.0001886692923579025    4    1    3    3
 0.005469724783800349    4    1    4    1
 -0.01190093806206514    4    2    1    1
 -0.0002192813586519113    4    2    2    1
 0.07437007793365835    4    2    2    2
 -0.005114592065965973    4    2    3    1
 -0.002188486436863014    4    2    3    2
 -0.01852644448284708    4    2    3    3
 0.0002430518091060272    4    2    4    1
 0.0255245263440498    4    2    4    2
 -0.03380452734226178    4    3    1    1
 0.0007232507687268983    4    3    2    1
 0.002642617685758178    4    3    2    2
 0.01683649266358558    4    3    3    1
 -0.002998086392448212    4    3    3    2
 -0.007972074501281554    4    3    3    3
 0.000141740229409229    4    3    4    1
 -0.004204906809149096    4    3    4    2
 0.0190482800341301    4    3    4    3
 0.1840268675423025    4    4    1    1
 0.002298803261254926    4    4    2    1
 0.2271812869013868    4    4    2    2
 0.04822723008856059    4    4    3    1
 -0.003708477054191681    4    4    3    2
 0.2437790594529979    4    4    3    3
 -0.005064107372109779    4    4    4    1
 -0.01165386155204356    4    4    4    2
 0.02782795777245944    4    4    4    3
 0.2925402631320112    4    4    4    4
 -0.00831424810681184    5    1    1    1
 0.001083792588942391    5    1    2    1
 0.003025673822922922    5    1    2    2
 0.01974505725101793    5    1    3    1
 -1.68397741122327e-05    5    1    3    2
 0.007217472611414453    5    1    3    3
 -0.004093065996351605    5    1    4    1
 -0.000265004184154095    5    1    4    2
 -0.0003959121530281832    5    1    4    3
 0.003299315192878257    5    1    4    4
 0.003276053626365388    5    1    5    1
 0.01059800796873397    5    2    1    1
 0.0001394646027608769    5    2    2    1
 -0.01870114391381433    5    2    2    2
 0.003765138454098405    5    2    3    1
 0.0005138679501711734    5    2    3    2
 0.01536546136600848    5    2    3    3
 -2.838696893584869e-05    5    2    4    1
 -0.00889611744550357    5    2    4    2
 0.002846329466810881    5    2    4    3
 0.004582058061295897    5    2    4    4
 0.0003728074245841163    5    2    5    1
 0.005661492598578234    5    2    5    2
 0.03158399757177489    5    3    1    1
 -0.0005383118003653221    5    3    2    1
 -0.004225007533402827    5    3    2    2
 -0.009291524544151289    5    3    3    1
 0.002382947839676917    5    3    3    2
 0.01586608703155256    5    3    3    3
 -0.0002225159540618533    5    3    4    1
 0.002540760167822664    5    3    4    2
 -0.01379767714009405    5    3    4    3
 -0.02029885969718575    5    3    4    4
 0.0006304828260140635    5    3    5    1
 -0.001390839916486189    5    3    5    2
 0.0104114007454854    5    3    5    3
 -0.06403220598130951    5    4    1    1
 -8.864119557678088e-05    5    4    2    1
 -0.02852104875528719    5    4    2    2
 -0.02566216084338066    5    4    3    1
 0.001613262134889249    5    4    3    2
 -0.09692717170122572    5    4    3    3
 -0.0004871590404096869    5    4    4    1
 0.001413176245342964    5    4    4    2
 -0.01869033849063064    5    4    4    3
 -0.01907971520728016    5    4    4    4
 -0.002485094036476935    5    4    5    1
 -0.01331783793546403    5    4    5    2
 0.008530896336183914    5    4    5    3
 0.1267003178726915    5    4    5    4
 0.1338220861357304    5    5    1    1
 0.001960381202196819    5    5    2    1
 0.1752955515011936    5    5    2    2
 0.02870768478461279    5    5    3    1
 -0.001784236749144385    5    5    3    2
 0.1683702257167634    5    5    3    3
 -0.005047043212463    5    5    4    1
 -0.01477536878999261    5    5    4    2
 0.01302883712460902    5    5    4    3
 0.2767110372202619    5    5    4    4
 0.001227190156841248    5    5    5    1
 -0.006266096356405728    5    5    5    2
 -0.01352513964696032    5    5    5    3
 0.1017072847269968    5    5    5    4
 0.3922649617930656    5    5    5    5
 -0.001044151547067591    6    1    1    1
 4.994257138842202e-06    6    1    2    1
 0.0005539919936455558    6    1    2    2
 -0.0006320992483716505    6    1    3    1
 -6.211740322380519e-06    6    1    3    2
 -0.001796485516252048    6    1    3    3
 -5.334577596396723e-06    6    1    4    1
 0.000146717153749115    6    1    4    2
 -0.0001666705043594205    6    1    4    3
 -0.0004190211687594964    6    1    4    4
 -3.234709933957255e-05    6    1    5    1
 -0.0001840766637004646    6    1    5    2
 6.849422510251348e-05    6    1    5    3
 0.0004897274308299474    6    1    5    4
 -0.0002011931243033006    6    1    5    5
 8.272632491411401e-05    6    1    6    1
 -0.004145036737308761    6    2    1    1
 0.0001935561984020913    6    2    2    1
 -0.00522371614829889    6    2    2    2
 -0.0004168112473874083    6    2    3    1
 0.001067798859790754    6    2    3    2
 -0.004464235963227025    6    2    3    3
 -0.0001556726071670465    6    2    4    1
 -0.0005478499630550339    6    2    4    2
 -0.0002622014774158447    6    2    4    3
 -6.936110485076142e-06    6    2    4    4
 -0.0001183930833169118    6    2    5    1
 -0.009719484534436051    6    2    5    2
 0.0002114283144701742    6    2    5    3
 0.002520468583488133    6    2    5    4
 0.00278192606307316    6    2    5    5
 0.001037996511845438    6    2    6    1
 0.09370472708917355    6    2    6    2
 -0.002617166525960266    6    3    1    1
 8.21019589262034e-06    6    3    2    1
 0.002891287180662062    6    3    2    2
 -0.001847468426258698    6    3    3    1
 -5.23539123622631e-05    6    3    3    2
 -0.004870980721132508    6    3    3    3
 -3.159663487904891e-06    6    3    4    1
 0.0007458815595420877    6    3    4    2
 -0.0007531269294038514    6    3    4    3
 -0.001801501498217433    6    3    4    4
 -7.677621947956991e-05    6    3    5    1
 -0.0001684369073930668    6    3    5    2
 0.0003997358140948287    6    3    5    3
 0.001559189504628811    6    3    5    4
 -0.0009826826603682496    6    3    5    5
 8.278994558847031e-05    6    3    6    1
 -0.001619530980526493    6    3    6    2
 0.0002473839262829008    6    3    6    3
 -0.003408409461264977    6    4    1    1
 -3.351892826694564e-05    6    4    2    1
 -0.002758332166126986    6    4    2    2
 -0.001704082105690199    6    4    3    1
 0.0002003894574948666    6    4    3    2
 -0.005688885752169338    6    4    3    3
 5.125041529130316e-05    6    4    4    1
 0.0003084555582424806    6    4    4    2
 -0.001145980101248222    6    4    4    3
 -0.0007919317036525577    6    4    4    4
 -0.0001590723363796282    6    4    5    1
 -0.00209952591634364    6    4    5    2
 0.0005966127853885568    6    4    5    3
 0.009228531372939849    6    4    5    4
 0.0109503952038438    6    4    5    5
 -0.0004587306963188221    6    4    6    1
 0.009853877459745426    6    4    6    2
 -0.0006418054097954264    6    4    6    3
 0.01103573578980525    6    4    6    4
 -0.001836254053802605    6    5    1    1
 -0.0001468964008916726    6    5    2    1
 -0.02583547258990974    6    5    2    2
 0.0004913137080783612    6    5    3    1
 0.0004911840988219541    6    5    3    2
 -0.0009608532092371181    6    5    3    3
 -8.531767083636238e-06    6    5    4    1
 -0.005072488507094348    6    5    4    2
 0.0004589733177215414    6    5    4    3
 0.005167827780037115    6    5    4    4
 -0.0002341357624464642    6    5    5    1
 1.916153661566224e-05    6    5    5    2
 -0.0007076216387127402    6    5    5    3
 0.0155521273546935    6    5    5    4
 0.02346018759785516    6    5    5    5
 0.000188183003759556    6    5    6    1
 -0.0006557074551659735    6    5    6    2
 -4.337455704367323e-05    6    5    6    3
 -0.002539726806123094    6    5    6    4
 0.006554928754390744    6    5    6    5
 0.1241473634811754    6    6    1    1
 0.003411875969490066    6    6    2    1
 0.4179546707336365    6    6    2    2
 0.01624117267415206    6    6    3    1
 -0.006393330325156172    6    6    3    2
 0.1413238877824408    6    6    3    3
 -0.005095550235312878    6    6    4    1
 0.03636661416528209    6    6    4    2
 0.003504106682984499    6    6    4    3
 0.2096760614033712    6    6    4    4
 0.002800519046759889    6    6    5    1
 -0.007935836598436297    6    6    5    2
 -0.004378978071396426    6    6    5    3
 -0.02033599831565708    6    6    5    4
 0.17172025963336    6    6    5    5
 0.0006629510016470299    6    6    6    1
 -0.001226068664158416    6    6    6    2
 0.002393521635865775    6    6    6    3
 -0.005288207461924937    6    6    6    4
 -0.0174139461455818    6    6    6    5
 0.3480095534889086    6    6    6    6
 -0.0002082915225942025    7    1    1    1
 -0.0003006282690918228    7    1    2    1
 0.0002289056576624826    7    1    2    2
 -0.006509860642090977    7    1    3    1
 -9.476584444486583e-05    7    1    3    2
 -0.004403763435845267    7    1    3    3
 0.001349888576763634    7    1    4    1
 5.399422067063802e-05    7    1    4    2
 0.0004780102637023579    7    1    4    3
 -0.0004017380366339071    7    1    4    4
 -0.001152064819948908    7    1    5    1
 -6.942373300762018e-05    7    1    5    2
 -0.0005016525039226151    7    1    5    3
 0.0005651800702489392    7    1    5    4
 -0.000169122036714669    7    1    5    5
 1.737271095531402e-05    7    1    6    1
 2.200279714954069e-05    7    1    6    2
 4.907955596935292e-05    7    1    6    3
 -2.5560183419448e-05    7    1    6    4
 -2.547369274361989e-05    7    1    6    5
 0.0004560538932302732    7    1    6    6
 0.0005068293929920428    7    1    7    1
 -0.002028252539326    7    2    1    1
 -5.067265910271553e-05    7    2    2    1
 -0.02084820296159923    7    2    2    2
 -0.0009026596661904126    7    2    3    1
 0.0005224463566021779    7    2    3    2
 -0.003290794203632159    7    2    3    3
 -7.057788211418573e-05    7    2    4    1
 -0.00488593884155462    7    2    4    2
 -0.0005276809500372132    7    2    4    3
 -0.002596481342539576    7    2    4    4
 -9.99700297592023e-06    7    2    5    1
 0.002016108047885043    7    2    5    2
 0.0003280318668849919    7    2    5    3
 0.001992986832288109    7    2    5    4
 -0.0007281644974558508    7    2    5    5
 -3.375494380191411e-05    7    2    6    1
 -0.005967370710558547    7    2    6    2
 0.0001520623984507517    7    2    6    3
 -0.0009041780704723888    7    2    6    4
 0.0008942271228612178    7    2    6    5
 -0.007006908335340501    7    2    6    6
 0.000161199732651549    7    2    7    1
 0.002864693758163263    7    2    7    2
 -0.01107412489440787    7    3    1    1
 0.000223601121597733    7    3    2    1
 0.003513072067612145    7    3    2    2
 0.00354897567714251    7    3    3    1
 -0.0009291050045105556    7    3    3    2
 -0.005300916277977373    7    3    3    3
 4.384103651683098e-05    7    3    4    1
 -0.0008562763001333725    7    3    4    2
 0.005367511097493678    7    3    4    3
 0.008773042454572305    7    3    4    4
 -0.0001918233509446083    7    3    5    1
 0.0005532405936598277    7    3    5    2
 -0.004033915887322171    7    3    5    3
 -0.004214501417816746    7    3    5    4
 0.00510329936076184    7    3    5    5
 -1.458365597717132e-05    7    3    6    1
 0.0003321901854794849    7    3    6    2
 -0.0001563578216949634    7    3    6    3
 -0.000499473016101924    7    3    6    4
 0.0001869749581832124    7    3    6    5
 0.003246977692516536    7    3    6    6
 0.0002275349876779456    7    3    7    1
 -9.522311272109242e-05    7    3    7    2
 0.001668635917515582    7    3    7    3
 0.01504613598157167    7    4    1    1
 -0.000233817027650443    7    4    2    1
 -0.01527581219209704    7    4    2    2
 0.007673366970424746    7    4    3    1
 -0.000155411607155405    7    4    3    2
 0.02541533791598298    7    4    3    3
 0.0005207144670335883    7    4    4    1
 -0.003399404559310917    7    4    4    2
 0.005945578916666509    7    4    4    3
 0.009628984978157123    7    4    4    4
 0.0001165908689206557    7    4    5    1
 0.002033023717852366    7    4    5    2
 -0.00346479246920034    7    4    5    3
 -0.010908109438043    7    4    5    4
 0.004558681505994251    7    4    5    5
 -0.0002381981309904084    7    4    6    1
 -0.001573833864190264    7    4    6    2
 -0.000836976894200358    7    4    6    3
 -0.0005733727503567984    7    4    6    4
 0.002015037688558684    7    4    6    5
 -0.01740356337117717    7    4    6    6
 -0.0006697421637357074    7    4    7    1
 -0.002248051039433078    7    4    7    2
 0.0008932718325260569    7    4    7    3
 0.01147403068466947    7    4    7    4
 -0.01178615268544582    7    5    1    1
 0.0001073227196256607    7    5    2    1
 0.007305463640258109    7    5    2    2
 -0.005754789946169164    7    5    3    1
 0.0001229654687429909    7    5    3    2
 -0.01945457713805795    7    5    3    3
 -0.0002397498708674741    7    5    4    1
 0.002196054086800299    7    5    4    2
 -0.004199434589520695    7    5    4    3
 -0.007194182272555818    7    5    4    4
 -0.000211455245048246    7    5    5    1
 -0.001648217840379418    7    5    5    2
 0.002354102445018943    7    5    5    3
 0.01217456305961838    7    5    5    4
 0.002151034911052193    7    5    5    5
 6.532239179590847e-05    7    5    6    1
 -0.0006234475198413155    7    5    6    2
 0.0005075755262122952    7    5    6    3
 0.002101141718667452    7    5    6    4
 -0.0009210617372225737    7    5    6    5
 0.007797957946054666    7    5    6    6
 0.0003609074820424304    7    5    7    1
 0.001280278350873198    7    5    7    2
 -0.0008416756530106359    7    5    7    3
 -0.006626038208788703    7    5    7    4
 0.00477061372025283    7    5    7    5
 -0.00463116154360103    7    6    1    1
 -1.051713829186367e-06    7    6    2    1
 -0.01569933515753081    7    6    2    2
 -0.0007112522800819653    7    6    3    1
 0.000526128207466093    7    6    3    2
 -0.005396188963389739    7    6    3    3
 -0.0002356867195024228    7    6    4    1
 -0.002792452361445501    7    6    4    2
 -0.0008103234718282789    7    6    4    3
 -0.002212429650482029    7    6    4    4
 -7.668954885757116e-05    7    6    5    1
 -0.0009701932234013085    7    6    5    2
 0.0003026697003348702    7    6    5    3
 0.005701643629478583    7    6    5    4
 0.0002584865083933223    7    6    5    5
 0.0008345370886258495    7    6    6    1
 0.01338042207768076    7    6    6    2
 0.0003413897651335313    7    6    6    3
 -0.01254808439779122    7    6    6    4
 0.006950486438081846    7    6    6    5
 -0.001013622688166457    7    6    6    6
 0.0001159977801880031    7    6    7    1
 0.0007793039014903102    7    6    7    2
 0.0004843490062920314    7    6    7    3
 -0.0004980897935275598    7    6    7    4
 -0.004295213472152452    7    6    7    5
 0.05404321487169791    7    6    7    6
 0.1214799884442965    7    7    1    1
 0.001685229917201467    7    7    2    1
 0.1676547384065449    7    7    2    2
 0.01568284288090247    7    7    3    1
 -0.001032131385491854    7    7    3    2
 0.1382803997386585    7    7    3    3
 -0.004094759426731709    7    7    4    1
 -0.007196784538035236    7    7    4    2
 0.005440986894477771    7    7    4    3
 0.1777310902736667    7    7    4    4
 0.002372789404662502    7    7    5    1
 0.004257657862799883    7    7    5    2
 -0.004623262989791859    7    7    5    3
 -0.01856667927753032    7    7    5    4
 0.1511674432525714    7    7    5    5
 0.0002215284867613382    7    7    6    1
 0.001254901060486796    7    7    6    2
 0.0006231044906588651    7    7    6    3
 -0.002535763225271985    7    7    6    4
 -0.005383697489458987    7    7    6    5
 0.203188007470209    7    7    6    6
 -0.0001098383732535228    7    7    7    1
 0.006610912739555736    7    7    7    2
 0.00200674283843306    7    7    7    3
 -0.01031163133088924    7    7    7    4
 0.004399048300812211    7    7    7    5
 0.002949782334813265    7    7    7    6
 0.2570571790515067    7    7    7    7
 0.0002123679633976797    8    1    1    1
 6.280797846549134e-06    8    1    2    1
 -0.0002579250152223642    8    1    2    2
 0.0002927458536792318    8    1    3    1
 6.780332099982401e-06    8    1    3    2
 0.0004334162110098573    8    1    3    3
 -2.931277939741559e-05    8    1    4    1
 -7.186999542322609e-05    8    1    4    2
 2.110663436737654e-05    8    1    4    3
 9.597317363050788e-05    8    1    4    4
 2.86834489027563e-05    8    1    5    1
 5.975776908372934e-05    8    1    5    2
 -6.503666937203005e-06    8    1    5    3
 -7.972636296550505e-05    8    1    5    4
 2.373980000283625e-05    8    1    5    5
 2.494713367448946e-05    8    1    6    1
 -0.0002791033086039418    8    1    6    2
 3.111874050096538e-05    8    1    6    3
 -0.0002043765324848413    8    1    6    4
 8.664725124534264e-05    8    1    6    5
 -0.0001073234761858484    8    1    6    6
 -1.591299760677743e-05    8    1    7    1
 3.48790603852498e-05    8    1    7    2
 1.371703323679386e-06    8    1    7    3
 3.924194166579365e-05    8    1    7    4
 -3.870458715938626e-05    8    1    7    5
 -1.881845204022481e-05    8    1    7    6
 4.114732048568564e-05    8    1    7    7
 4.890476142252089e-05    8    1    8    1
 0.002960934871883803    8    2    1    1
 -0.0001101260827449013    8    2    2    1
 0.001598211602799133    8    2    2    2
 0.0004793181348573506    8    2    3    1
 -0.0006809235000394366    8    2    3    2
 0.003454389863968503    8    2    3    3
 6.198080781387417e-05    8    2    4    1
 -0.000510516272952998    8    2    4    2
 0.0002644953958335447    8    2    4    3
 0.0001929259398025194    8    2    4    4
 9.001880280594366e-05    8    2    5    1
 0.007170922763825739    8    2    5    2
 -0.0002298238535258883    8    2    5    3
 -0.001711444618278621    8    2    5    4
 -0.00245131127677225    8    2    5    5
 -0.000485074005585855    8    2    6    1
 -0.06510610024830972    8    2    6    2
 0.001334147631920545    8    2    6    3
 -0.01093977389148071    8    2    6    4
 0.002276726013228432    8    2    6    5
 0.001580470738535961    8    2    6    6
 -8.08589322250406e-07    8    2    7    1
 0.004425043674795509    8    2    7    2
 -7.780405927470619e-05    8    2    7    3
 0.001272102173361934    8    2    7    4
 -0.0005526184544596162    8    2    7    5
 -0.0002938309243265782    8    2    7    6
 -0.0006281119453365445    8    2    7    7
 0.0003177639966786879    8    2    8    1
 0.04781518990536827    8    2    8    2
 0.0006424957022815403    8    3    1    1
 -1.587634051964123e-05    8    3    2    1
 -0.001931269736315404    8    3    2    2
 9.395127240893219e-05    8    3    3    1
 8.337461974317849e-05    8    3    3    2
 0.0007144296251717795    8    3    3    3
 1.484265630943746e-05    8    3    4    1
 -0.0003334757266674064    8    3    4    2
 -6.621719484123387e-05    8    3    4    3
 -0.0001593209086858482    8    3    4    4
 -1.77813587526765e-06    8    3    5    1
 -6.361969705703018e-05    8    3    5    2
 7.152947293461157e-05    8    3    5    3
 1.991501362100744e-05    8    3    5    4
 -3.594396568216013e-05    8    3    5    5
 3.477497879099659e-05    8    3    6    1
 0.001510503623503845    8    3    6    2
 -3.820575899994255e-07    8    3    6    3
 0.0001678815674770359    8    3    6    4
 5.852420559139685e-05    8    3    6    5
 -0.001072619299800256    8    3    6    6
 -5.938292323090813e-06    8    3    7    1
 2.438186435430657e-05    8    3    7    2
 -3.217841414764192e-05    8    3    7    3
 -3.42777470367852e-05    8    3    7    4
 1.185036744866921e-05    8    3    7    5
 -0.0001716848235372094    8    3    7    6
 0.0002976710840198795    8    3    7    7
 4.425940796794015e-05    8    3    8    1
 -0.001022312823477865    8    3    8    2
 0.0001047892914532079    8    3    8    3
 0.00105925696321286    8    4    1    1
 -3.648777160243348e-05    8    4    2    1
 -0.0009050812421127812    8    4    2    2
 8.335895249106438e-05    8    4    3    1
 -0.0001234843219729655    8    4    3    2
 0.001073671315429018    8    4    3    3
 4.115621728369016e-05    8    4    4    1
 -0.0004704384674169972    8    4    4    2
 8.933317188373401e-05    8    4    4    3
 -0.0003541708450098256    8    4    4    4
 4.187889813677412e-05    8    4    5    1
 0.001942848843936856    8    4    5    2
 -7.912281770468233e-06    8    4    5    3
 -0.001649131269725294    8    4    5    4
 -0.001817243751460146    8    4    5    5
 -0.0003570782204163684    8    4    6    1
 -0.01603809659879531    8    4    6    2
 0.0001225567113297796    8    4    6    3
 0.0008609155103168854    8    4    6    4
 -0.001186104517648204    8    4    6    5
 -0.001155070254421041    8    4    6    6
 -1.144202127298692e-06    8    4    7    1
 0.001199664539258344    8    4    7    2
 -0.0001486011882066022    8    4    7    3
 -4.713927477253553e-05    8    4    7    4
 0.0007648148229153167    8    4    7    5
 -0.006897536005990868    8    4    7    6
 0.001083927199633107    8    4    7    7
 -0.0002798891530832672    8    4    8    1
 0.009205813454813071    8    4    8    2
 -0.0005068251272749144    8    4    8    3
 0.006952090285130872    8    4    8    4
 0.0003879994212604623    8    5    1    1
 0.0001228044579486573    8    5    2    1
 0.01869845680597107    8    5    2    2
 0.0001561808994462478    8    5    3    1
 -0.0003735806297511578    8    5    3    2
 0.0006107150058358416    8    5    3    3
 -4.951315362935795e-05    8    5    4    1
 0.003573061800146056    8    5    4    2
 -3.389147556254823e-05    8    5    4    3
 0.001225728391355611    8    5    4    4
 3.755194511179076e-05    8    5    5    1
 -0.001334786846464258    8    5    5    2
 9.94526177478994e-06    8    5    5    3
 -0.002259713476702751    8    5    5    4
 -0.002286260335421588    8    5    5    5
 0.0001546924103179483    8    5    6    1
 0.004771094084778734    8    5    6    2
 6.789456611805948e-05    8    5    6    3
 -0.001064612646111652    8    5    6    4
 -0.0007208334094232632    8    5    6    5
 0.01070132063779003    8    5    6    6
 -1.392851652543789e-05    8    5    7    1
 -0.001572455421282637    8    5    7    2
 0.0001181309341925151    8    5    7    3
 0.000134995249258636    8    5    7    4
 -0.0005182826345181057    8    5    7    5
 0.002358212389543936    8    5    7    6
 -0.003405160212090249    8    5    7    7
 0.0001194840369217073    8    5    8    1
 -0.002371428520565578    8    5    8    2
 5.940805063564227e-05    8    5    8    3
 -0.002967057540928682    8    5    8    4
 0.002525001188125557    8    5    8    5
 -0.003203314638432143    8    6    1    1
 -0.001054989497327991    8    6    2    1
 -0.1764912588473724    8    6    2    2
 -0.000993008422734747    8    6    3    1
 0.003986637359940501    8    6    3    2
 -0.004435137610522418    8    6    3    3
 0.0003445443340566517    8    6    4    1
 -0.03280834863294459    8    6    4    2
 0.0006262845228492786    8    6    4    3
 -0.01879289523468556    8    6    4    4
 -0.0002196497399909395    8    6    5    1
 0.008889516532820585    8    6    5    2
 0.0001196691418946083    8    6    5    3
 0.00426315300543697    8    6    5    4
 -0.009506224094880276    8    6    5    5
 -7.609072843756701e-05    8    6    6    1
 0.004121032922717675    8    6    6    2
 -0.0009491981839060008    8    6    6    3
 -0.0005423522370366285    8    6    6    4
 0.009526889021979758    8    6    6    5
 -0.09527880280276023    8    6    6    6
 -1.976933895323548e-05    8    6    7    1
 0.01158539986049243    8    6    7    2
 -0.0005806504485467994    8    6    7    3
 0.000106653883765663    8    6    7    4
 -0.0004371788211336367    8    6    7    5
 0.01097925192774324    8    6    7    6
 0.04096837908975139    8    6    7    7
 0.000146451474179143    8    6    8    1
 -0.001567096821374524    8    6    8    2
 0.001042782490096922    8    6    8    3
 0.0003293494147110446    8    6    8    4
 -0.009852784492280109    8    6    8    5
 0.09881096929531498    8    6    8    6
 -0.004018709475878722    8    7    1    1
 0.0001836745532302176    8    7    2    1
 0.01234706462877413    8    7    2    2
 -0.0001016035649587649    8    7    3    1
 -4.224856450779491e-05    8    7    3    2
 -0.003973216298182741    8    7    3    3
 -0.0003109505496501641    8    7    4    1
 0.002623060002407273    8    7    4    2
 -0.0006574614464935713    8    7    4    3
 0.0007081148487721037    8    7    4    4
 -2.428123118604114e-05    8    7    5    1
 -0.00339887855798198    8    7    5    2
 0.000146044605962309    8    7    5    3
 0.003980339610347894    8    7    5    4
 0.0004440123075072015    8    7    5    5
 0.0009154006258107594    8    7    6    1
 0.02322574279121701    8    7    6    2
 0.0001534406355115474    8    7    6    3
 -0.0129396959686693    8    7    6    4
 0.005771542305654083    8    7    6    5
 0.01546025043404501    8    7    6    6
 7.929847685482464e-05    8    7    7    1
 -0.00198647743183312    8    7    7    2
 0.000760076928924768    8    7    7    3
 0.0001388211034025338    8    7    7    4
 -0.006074756360691758    8    7    7    5
 0.07330502035071589    8    7    7    6
 -0.004151285999693879    8    7    7    7
 -0.0003455032304302934    8    7    8    1
 -0.006400738095097992    8    7    8    2
 -0.0006051899733615115    8    7    8    3
 -0.008090625413838419    8    7    8    4
 0.004246942825774258    8    7    8    5
 -0.0041048422793824    8    7    8    6
 0.1113508251231222    8    7    8    7
 0.1190329236321186    8    8    1    1
 0.002409101903372967    8    8    2    1
 0.2920158664910119    8    8    2    2
 0.0140637375173918    8    8    3    1
 -0.00376245723028318    8    8    3    2
 0.1335535991779399    8    8    3    3
 -0.004360817074617655    8    8    4    1
 0.01707534448137505    8    8    4    2
 0.00328752958626586    8    8    4    3
 0.1856781183255909    8    8    4    4
 0.002437212179236169    8    8    5    1
 -0.002626784864374198    8    8    5    2
 -0.003662835420084555    8    8    5    3
 -0.01823495309836222    8    8    5    4
 0.1546890890583783    8    8    5    5
 0.0003031213417147481    8    8    6    1
 -0.002245554058403091    8    8    6    2
 0.001454037370735478    8    8    6    3
 -0.001766275104404384    8    8    6    4
 -0.01227903718924866    8    8    6    5
 0.2694863254848602    8    8    6    6
 -6.710671489100137e-05    8    8    7    1
 -0.001834241731962294    8    8    7    2
 0.001939424495316425    8    8    7    3
 -0.01163006633650973    8    8    7    4
 0.005775395459114999    8    8    7    5
 -0.005989391627244576    8    8    7    6
 0.230040469215065    8    8    7    7
 -6.393752717942058e-05    8    8    8    1
 0.000697283921450788    8    8    8    2
 -0.0004379996961700987    8    8    8    3
 0.001009808068251572    8    8    8    4
 0.003459602826061996    8    8    8    5
 -0.02783610817557479    8    8    8    6
 -0.003176644221959981    8    8    8    7
 0.2528173980661759    8    8    8    8
 -0.02127178684020668    9    1    1    1
 -0.000683076730757343    9    1    2    1
 0.001836445868677068    9    1    2    2
 -0.02016540628280062    9    1    3    1
 -0.0007051905278954982    9    1    3    2
 -0.02799286008929121    9    1    3    3
 0.004290309323424685    9    1    4    1
 0.0008635417854607581    9    1    4    2
 0.002287313466418848    9    1    4    3
 -0.004810158116664259    9    1    4    4
 -0.004078279005424249    9    1    5    1
 -0.0006397500193487389    9    1    5    2
 -0.002348082305793552    9    1    5    3
 0.004210487429194498    9    1    5    4
 -0.002092475859230663    9    1    5    5
 9.926851166986445e-05    9    1    6    1
 0.0002919959568605287    9    1    6    2
 0.00025788236470896    9    1    6    3
 0.0001040263189594674    9    1    6    4
 -0.0001095352783257511    9    1    6    5
 0.001258746931709359    9    1    6    6
 0.001891964744191245    9    1    7    1
 0.0001092016114311604    9    1    7    2
 0.0007685730443971754    9    1    7    3
 -0.001455793753426559    9    1    7    4
 0.001030367163460948    9    1    7    5
 0.0003871708310065696    9    1    7    6
 0.0001437956608884587    9    1    7    7
 -6.771587504912565e-05    9    1    8    1
 -0.0001685247902160828    9    1    8    2
 -4.160384662482868e-05    9    1    8    3
 -7.104125277129441e-05    9    1    8    4
 6.912037359644893e-05    9    1    8    5
 -0.0005228457395168324    9    1    8    6
 0.0005007133707008975    9    1    8    7