 &FCI NORB=  25,NELEC= 1,MS2=1,
  ORBSYM=1,1,1,1,1,1,1,1,1,1,1,1,1,1,1,1,1,1,1,1,1,1,1,1,1,
  ISYM=1,
 &END
 0.7890493066214981    1    1    1    1
 0.0003797542266491082    2    1    1    1
 3.182323526588876e-05    2    1    2    1
 0.147553012080113    2    2    1    1
 0.000260409224589005    2    2    2    1
 0.7600091365161037    2    2    2    2
 0.03116210567554772    3    1    1    1
 0.001415971212319846    3    1    2    1
 -0.003604937453579845    3    1    2    2
 0.09124992629825528    3    1    3    1
 0.007167900443664677    3    2    1    1
 -1.758538307564608e-05    3    2    2    1
 -0.01190203549536071    3    2    2    2
 -0.00138685538257384    3    2    3    1
 0.0004204926177241659    3    2    3    2
 0.5542845243270659    3    3    1    1
 -0.001338303382675109    3    3    2    1
 0.1461925828181817    3    3    2    2
 -0.0858296334780142    3    3    3    1
 0.007705573300581243    3    3    3    2
 0.585983608501493    3    3    3    3
 -0.003313045127735201    4    1    1    1
 -0.0001054449843227237    4    1    2    1
 0.005122436726445668    4    1    2    2
 0.0032409803339778    4    1    3    1
 -2.276688570043202e-05    4    1    3    2
 -0.005235480858554554    4    1    3    3
 0.0220691995662706    4    1    4    1
 -0.002866140930219488    4    2    1    1
 -1.796470542172972e-05    4    2    2    1
 0.008998103197568072    4    2    2    2
 0.000633553738693493    4    2    3    1
 -0.000527648784924253    4    2    3    2
 -0.003443654640947914    4    2    3    3
 -0.000903436020826353    4    2    4    1
 0.002184826798586982    4    2    4    2
 0.008998952918840454    4    3    1    1
 0.0001929762460553362    4    3    2    1
 -0.01532395483039999    4    3    2    2
 -3.147827845858251e-05    4    3    3    1
 -7.906476756803478e-05    4    3    3    2
 0.005436511081803742    4    3    3    3
 -0.04287108671728708    4    3    4    1
 0.002200491109115922    4    3    4    2
 0.1020137019208695    4    3    4    3
 0.4593392904234626    4    4    1    1
 -0.00188293242241586    4    4    2    1
 0.1587836073533989    4    4    2    2
 -0.1212006372917901    4    4    3    1
 0.00759315973572908    4    4    3    2
 0.5810851038101948    4    4    3    3
 -0.002545780775635576    4    4    4    1
 -0.004344165027398011    4    4    4    2
 -0.00772984480724976    4    4    4    3
 0.6900967311015672    4    4    4    4
 0.002886852510051771    5    1    1    1
 4.230171867724134e-05    5    1    2    1
 -0.001816429701774581    5    1    2    2
 0.001650408289533366    5    1    3    1
 2.970427791771256e-06    5    1    3    2
 -0.0001945992106923172    5    1    3    3
 -0.003024375482474491    5    1    4    1
 0.0001326947526247187    5    1    4    2
 0.00610067685370327    5    1    4    3
 -0.001680943541827262    5    1    4    4
 0.0004752857778150159    5    1    5    1
 -0.01057968498392001    5    2    1    1
 -0.0002235471486673986    5    2    2    1
 0.02340382057884034    5    2    2    2
 0.001653005141609262    5    2    3    1
 -0.002697795673774185    5    2    3    2
 -0.01188331881068629    5    2    3    3
 -0.0009132845302825784    5    2    4    1
 0.01556232591614771    5    2    4    2
 0.002488915926229779    5    2    4    3
 -0.0145880652210182    5    2    4    4
 0.00015653970546845    5    2    5    1
 0.1197320049595798    5    2    5    2
 0.007524683435923127    5    3    1    1
 -5.950238574237748e-05    5    3    2    1
 -0.006807671084221909    5    3    2    2
 -0.001711162699807105    5    3    3    1
 0.0003465017888625135    5    3    3    2
 0.008871329250527837    5    3    3    3
 0.005747866437831588    5    3    4    1
 -0.0006274730609209136    5    3    4    2
 -0.01372059206930065    5    3    4    3
 0.01026161351301652    5    3    4    4
 -0.0008122191003315585    5    3    5    1
 -0.002343307908740145    5    3    5    2
 0.002291809558831154    5    3    5    3
 -0.04266474924743139    5    4    1    1
 0.0002996756900639904    5    4    2    1
 0.05979189593323486    5    4    2    2
 0.0164021893508853    5    4    3    1
 -0.002121819018908171    5    4    3    2
 -0.06002192675358604    5    4    3    3
 0.0003457900695131274    5    4    4    1
 0.0009788651432610521    5    4    4    2
 0.0007210036835105503    5    4    4    3
 -0.07349412880845099    5    4    4    4
 9.681429627050268e-05    5    4    5    1
 0.001690294393330251    5    4    5    2
 -0.002591800426438743    5    4    5    3
 0.01833173975070071    5    4    5    4
 0.1507804983161781    5    5    1    1
 0.0001494058734448096    5    5    2    1
 0.6192066090841964    5    5    2    2
 -0.007232230794018751    5    5    3    1
 -0.008546837836165447    5    5    3    2
 0.1539021344161094    5    5    3    3
 0.005383091951145801    5    5    4    1
 0.004145967624024721    5    5    4    2
 -0.01651717072540829    5    5    4    3
 0.1711014442775856    5    5    4    4
 -0.001844644183880308    5    5    5    1
 0.003479228117494248    5    5    5    2
 -0.006155905575251574    5    5    5    3
 0.05857744756350115    5    5    5    4
 0.6207548818368294    5    5    5    5
 0.001395699972669095    6    1    1    1
 -0.0001472646966319664    6    1    2    1
 0.0008118752732665187    6    1    2    2
 -0.009677856558465913    6    1    3    1
 0.0001304975923453818    6    1    3    2
 0.005492119390744779    6    1    3    3
 -0.0001621156671093217    6    1    4    1
 -0.0001049950012906498    6    1    4    2
 -0.0005374426373729631    6    1    4    3
 0.01408455647488128    6    1    4    4
 -0.0001452314402357485    6    1    5    1
 -0.0002375765018294718    6    1    5    2
 3.077153965931826e-06    6    1    5    3
 -0.001866892379611699    6    1    5    4
 0.001203402935985527    6    1    5    5
 0.02161199137999041    6    1    6    1
 -0.0004680593492536679    6    2    1    1
 1.185276325122948e-06    6    2    2    1
 0.0003183565409941395    6    2    2    2
 -2.262767942894108e-05    6    2    3    1
 -2.080826506359013e-06    6    2    3    2
 -7.198942431040229e-05    6    2    3    3
 -1.838794403362221e-05    6    2    4    1
 -5.52289058383931e-05    6    2    4    2
 1.076966331902539e-05    6    2    4    3
 -0.0001562503004167975    6    2    4    4
 -1.328554541424565e-06    6    2    5    1
 -0.0005020535782041978    6    2    5    2
 8.100556719121399e-06    6    2    5    3
 5.841862575688917e-05    6    2    5    4
 0.0003109152418164181    6    2    5    5
 -0.0006355690274009822    6    2    6    1
 2.931373477361878e-05    6    2    6    2
 -0.01596319966400919    6    3    1    1
 -7.493712401154388e-05    6    3    2    1
 0.000129769970058241    6    3    2    2
 -0.00648403329407074    6    3    3    1
 0.0001337689359547004    6    3    3    2
 0.01384587140957563    6    3    3    3
 -0.0003695972594523892    6    3    4    1
 -2.825124644185101e-05    6    3    4    2
 -0.0002263411890422783    6    3    4    3
 0.008778847877128978    6    3    4    4
 -0.0002621940234883109    6    3    5    1
 -0.0001846230135856757    6    3    5    2
 0.0007419853273350149    6    3    5    3
 -0.001185186450632892    6    3    5    4
 0.0005414960943829244    6    3    5    5
 -0.04111240093471318    6    3    6    1
 0.001597584996960648    6    3    6    2
 0.1050103469063146    6    3    6    3
 0.0004207624029185927    6    4    1    1
 -3.168758406816198e-05    6    4    2    1
 -8.330040933504343e-05    6    4    2    2
 -0.0003175090176335038    6    4    3    1
 1.053021706715929e-05    6    4    3    2
 4.400695015384407e-05    6    4    3    3
 0.001610837278472338    6    4    4    1
 -1.272735384796945e-05    6    4    4    2
 0.001369875077878707    6    4    4    3
 0.0001806806816372953    6    4    4    4
 -0.0002268686472223923    6    4    5    1
 -6.118468672305288e-06    6    4    5    2
 -0.0001909482584525242    6    4    5    3
 0.0001324513058843462    6    4    5    4
 -0.0001894277684915068    6    4    5    5
 0.0007131094541885596    6    4    6    1
 -0.0001814212179384782    6    4    6    2
 -0.003315791033322777    6    4    6    3
 0.03531843462622862    6    4    6    4
 0.0008633582263180462    6    5    1    1
 -5.961582132624087e-06    6    5    2    1
 -0.002171736618819376    6    5    2    2
 -0.0006039820387591228    6    5    3    1
 7.526524943584465e-05    6    5    3    2
 0.00216707234318392    6    5    3    3
 -0.0002749948241481462    6    5    4    1
 -3.181942909829954e-05    6    5    4    2
 -0.0001447391587265193    6    5    4    3
 0.002160312091961131    6    5    4    4
 2.68263968186528e-05    6    5    5    1
 -1.584408721477816e-05    6    5    5    2
 0.0001146167027521802    6    5    5    3
 -0.000602253282300817    6    5    5    4
 -0.002131181256864738    6    5    5    5
 -0.001039099258810983    6    5    6    1
 6.248118735565418e-05    6    5    6    2
 0.00321527232067345    6    5    6    3
 -0.005120627121890805    6    5    6    4
 0.0008401042703408525    6    5    6    5
 0.4641233777165135    6    6    1    1
 -0.001846822821794982    6    6    2    1
 0.1446907964455471    6    6    2    2
 -0.1216002560689062    6    6    3    1
 0.007729358331939067    6    6    3    2
 0.5883489313546785    6    6    3    3
 -0.00443396558812427    6    6    4    1
 -0.003780031563629426    6    6    4    2
 1.780181246683514e-05    6    6    4    3
 0.6269676863962339    6    6    4    4
 -0.001397131668577059    6    6    5    1
 -0.01285541488446697    6    6    5    2
 0.009947854687324169    6    6    5    3
 -0.06679994667519953    6    6    5    4
 0.1549964352334438    6    6    5    5
 0.01729300289626627    6    6    6    1
 -0.0001397613259906115    6    6    6    2
 0.01163264327193481    6    6    6    3
 0.0002097730947463434    6    6    6    4
 0.002615472673328767    6    6    6    5
 0.7058274840682458    6    6    6    6
 0.019457675426838    7    1    1    1
 -0.000516737015527214    7    1    2    1
 0.001750682284517327    7    1    2    2
 -0.03095585198415263    7    1    3    1
 0.0006186986634345409    7    1    3    2
 0.03854930882962668    7    1    3    3
 0.0005084644406505738    7    1    4    1
 -0.0002565408275827044    7    1    4    2
 -0.003163162853300695    7    1    4    3
 0.03618357641822319    7    1    4    4
 -0.000658604667269941    7    1    5    1
 -0.0004909777483389957    7    1    5    2
 0.001197485432161758    7    1    5    3
 -0.00486959839238491    7    1    5    4
 0.00269758229677944    7    1    5    5
 0.001489231353810753    7    1    6    1
 4.364686750077185e-05    7    1    6    2
 0.004780522458647927    7    1    6    3
 0.0001235684703543243    7    1    6    4
 0.0002459911782310145    7    1    6    5
 0.03611732892403592    7    1    6    6
 0.01643771962296524    7    1    7    1
 -0.001279084094503839    7    2    1    1
 -4.271830145845573e-06    7    2    2    1
 1.564653476953318e-05    7    2    2    2
 -2.456026851921685e-05    7    2    3    1
 -1.200853273996106e-05    7    2    3    2
 -0.0006302983475927348    7    2    3    3
 -9.394753448349936e-06    7    2    4    1
 -6.803167949044331e-05    7    2    4    2
 -1.891878468621128e-05    7    2    4    3
 0.000158603597462886    7    2    4    4
 -3.077934679799363e-06    7    2    5    1
 -0.0004877897138421546    7    2    5    2
 -1.266661922281661e-05    7    2    5    3
 3.809012662987536e-05    7    2    5    4
 0.0003233050763706309    7    2    5    5
 8.147074692388798e-05    7    2    6    1
 -1.196237152332969e-05    7    2    6    2
 -0.0001124529669963967    7    2    6    3
 2.178667261097828e-05    7    2    6    4
 -2.332445335610372e-06    7    2    6    5
 0.0001708592620161416    7    2    6    6
 -0.000191084468713087    7    2    7    1
 0.0002710585584378308    7    2    7    2
 -0.0687879511622046    7    3    1    1
 -2.088593029621149e-05    7    3    2    1
 -0.002466675629901235    7    3    2    2
 -0.00413635231201742    7    3    3    1
 -0.0003962145029364353    7    3    3    2
 -0.02487700274096934    7    3    3    3
 -0.003264125249060623    7    3    4    1
 3.623277502459253e-05    7    3    4    2
 0.007101070833998534    7    3    4    3
 0.02407357081913199    7    3    4    4
 0.000150992442756524    7    3    5    1
 -0.0002888515579343555    7    3    5    2
 -0.001354845436016312    7    3    5    3
 -0.00356293125514074    7    3    5    4
 -0.001087272735430255    7    3    5    5
 0.004951710086794426    7    3    6    1
 -6.535719295609468e-05    7    3    6    2
 -0.004831026737127899    7    3    6    3
 0.0001993441169331178    7    3    6    4
 -2.317893772089298e-05    7    3    6    5
 0.02585760298062539    7    3    6    6
 -0.01137833092666522    7    3    7    1
 0.0006435002972390939    7    3    7    2
 0.04239666522250396    7    3    7    3
 0.006468104937617486    7    4    1    1
 -1.449365355735588e-05    7    4    2    1
 -0.005088440425140538    7    4    2    2
 -0.00189795725873946    7    4    3    1
 5.300544978386334e-05    7    4    3    2
 0.00727404550193168    7    4    3    3
 -0.008203011310135431    7    4    4    1
 0.0007595746937491826    7    4    4    2
 0.03577894295628183    7    4    4    3
 -0.003799386849839405    7    4    4    4
 0.001152801300263914    7    4    5    1
 0.001219733540242827    7    4    5    2
 -0.004755228291176333    7    4    5    3
 0.0006273355080447693    7    4    5    4
 -0.006096648054618265    7    4    5    5
 -8.157182543127161e-05    7    4    6    1
 2.186500054774895e-06    7    4    6    2
 0.0001720941684520517    7    4    6    3
 0.0001130212028507605    7    4    6    4
 -1.131466088312629e-06    7    4    6    5
 -0.0005176688612700575    7    4    6    6
 0.0003345255135563532    7    4    7    1
 -0.0001421929002543514    7    4    7    2
 -7.609410973334216e-05    7    4    7    3
 0.05140123012128231    7    4    7    4
 -0.001044277723370901    7    5    1    1
 -1.036639529507262e-05    7    5    2    1
 -0.001422298722366458    7    5    2    2
 -0.0003976160198638075    7    5    3    1
 3.786361364682547e-05    7    5    3    2
 0.0005212497331727533    7    5    3    3
 0.001042676258097286    7    5    4    1
 -3.168374140401393e-05    7    5    4    2
 -0.004845042355642294    7    5    4    3
 0.003721157192544899    7    5    4    4
 -0.000159521292907699    7    5    5    1
 0.0004467728205888493    7    5    5    2
 0.0007315375736029703    7    5    5    3
 -0.0009142097500186529    7    5    5    4
 -0.00150193001873451    7    5    5    5
 0.0001725272256913479    7    5    6    1
 -3.936332968559553e-06    7    5    6    2
 4.763288269390581e-05    7    5    6    3
 -3.286930865345572e-05    7    5    6    4
 2.512899442222769e-05    7    5    6    5
 0.003505661375098002    7    5    6    6
 -0.0001570569889305775    7    5    7    1
 6.996104990527114e-05    7    5    7    2
 0.001373723181143331    7    5    7    3
 -0.007350988422029583    7    5    7    4
 0.001234159978152594    7    5    7    5
 -0.005016063672622796    7    6    1    1
 4.644712092548021e-05    7    6    2    1
 -0.0006728714546589781    7    6    2    2
 0.003080524789227425    7    6    3    1
 -6.34775857860373e-05    7    6    3    2
 -0.003520861183804941    7    6    3    3
 2.788758036366791e-05    7    6    4    1
 1.948691572481349e-05    7    6    4    2
 0.0001444903740167145    7    6    4    3
 -0.0009727192728908585    7    6    4    4
 3.29734536663676e-05    7    6    5    1
 3.220739415914911e-05    7    6    5    2
 7.76019226313766e-05    7    6    5    3
 3.439213701172924e-05    7    6    5    4
 -0.0005802126272952288    7    6    5    5
 -0.008400366060217802    7    6    6    1
 0.0005646972240235116    7    6    6    2
 0.03750438243197571    7    6    6    3
 -0.001630401277704159    7    6    6    4
 0.001440823499466506    7    6    6    5
 -0.0006702623610670062    7    6    6    6
 7.405526489492703e-05    7    6    7    1
 -7.082400685701921e-06    7    6    7    2
 0.001185735287992281    7    6    7    3
 -0.0003703068328848577    7    6    7    4
 0.0003015863139055141    7    6    7    5
 0.05288040665115432    7    6    7    6
 0.4055361220322563    7    7    1    1
 -0.00158827904464148    7    7    2    1
 0.1416837556763396    7    7    2    2
 -0.1043738764137234    7    7    3    1
 0.006761500784869694    7    7    3    2
 0.5269937506323181    7    7    3    3
 -0.004675177254059457    7    7    4    1
 -0.003638291384723942    7    7    4    2
 0.003364922731905637    7    7    4    3
 0.6350923772617593    7    7    4    4
 -0.001112375721876447    7    7    5    1
 -0.01277218521692304    7    7    5    2
 0.008329390950468505    7    7    5    3
 -0.06842057290763642    7    7    5    4
 0.1529926111098255    7    7    5    5
 0.01360513337176473    7    7    6    1
 -0.0001291186413067923    7    7    6    2
 0.008106496726743498    7    7    6    3
 -0.0001876777594071712    7    7    6    4
 0.002331648831975694    7    7    6    5
 0.6441507662994236    7    7    6    6
 0.02649848694790604    7    7    7    1
 0.0007535872869937913    7    7    7    2
 0.06600358521268314    7    7    7    3
 -0.005241823384816623    7    7    7    4
 0.006034629551147105    7    7    7    5
 0.003552381680596926    7    7    7    6
 0.8013908138314779    7    7    7    7
 -0.0003444048757846516    8    1    1    1
 2.621030402235515e-05    8    1    2    1
 -0.0004347120544298764    8    1    2    2
 0.00160610949308523    8    1    3    1
 -1.916941399361471e-05    8    1    3    2
 -0.001622292013262032    8    1    3    3
 -2.638583444689659e-06    8    1    4    1
 5.221310854910922e-06    8    1    4    2
 0.0001244400116339192    8    1    4    3
 -0.001609232670209331    8    1    4    4
 3.41933715322654e-05    8    1    5    1
 -3.11832330702132e-06    8    1    5    2
 -4.204615587699815e-05    8    1    5    3
 0.0001770342684241163    8    1    5    4
 -0.0004078300242367899    8    1    5    5
 -9.678808157582363e-06    8    1    6    1
 -4.710406260030812e-06    8    1    6    2
 -0.0003951519633221479    8    1    6    3
 1.02334663809946e-06    8    1    6    4
 -1.508866369094795e-05    8    1    6    5
 -0.001570507052323421    8    1    6    6
 -0.0008052571764293804    8    1    7    1
 7.179803444529001e-06    8    1    7    2
 0.0005091253704742948    8    1    7    3
 -1.85748892094441e-05    8    1    7    4
 7.000985638514449e-06    8    1    7    5
 -3.436123370327953e-05    8    1    7    6
 -0.001144075884456102    8    1    7    7
 4.128896155327068e-05    8    1    8    1
 0.000937741917101237    8    2    1    1
 -8.501511615108744e-05    8    2    2    1
 0.001945733978409183    8    2    2    2
 -0.000119958303332821    8    2    3    1
 -0.0002248320198926671    8    2    3    2
 0.0004917716755799764    8    2    3    3
 7.945827080392252e-05    8    2    4    1
 2.088005674639187e-05    8    2    4    2
 -9.64805557154875e-05    8    2    4    3
 0.0008129925934686054    8    2    4    4
 -9.936561086048924e-06    8    2    5    1
 -0.0001710431721334022    8    2    5    2
 -2.459701886295856e-06    8    2    5    3
 -0.0001264724834538381    8    2    5    4
 -0.0007222952599392001    8    2    5    5
 0.0004689676548500029    8    2    6    1
 -0.0002680732724023007    8    2    6    2
 -0.001200528979964959    8    2    6    3
 0.0004253647443185253    8    2    6    4
 4.028154032286759e-06    8    2    6    5
 0.0007501717169969461    8    2    6    6
 6.32557679191301e-06    8    2    7    1
 0.005042106033227558    8    2    7    2
 4.244622770589406e-06    8    2    7    3
 8.590623513582527e-05    8    2    7    4
 0.0007869758120907782    8    2    7    5
 -0.0004793880131192262    8    2    7    6
 0.0007038409395432703    8    2    7    7
 -2.386749444053854e-05    8    2    8    1
 0.09979580814417313    8    2    8    2
 0.003910243861894477    8    3    1    1
 2.382133957541916e-06    8    3    2    1
 -0.0007752562586261101    8    3    2    2
 0.000169874994567266    8    3    3    1
 5.269543968048703e-05    8    3    3    2
 0.001758465619037889    8    3    3    3
 9.643032601753199e-05    8    3    4    1
 -2.821113187237698e-05    8    3    4    2
 -0.0001975714653919405    8    3    4    3
 -0.0007577235830185573    8    3    4    4
 3.586002354907173e-06    8    3    5    1
 -9.597474112816922e-05    8    3    5    2
 7.022967034203384e-05    8    3    5    3
 3.989770611835041e-05    8    3    5    4
 -0.0006062159194197662    8    3    5    5
 -0.0003963526271938212    8    3    6    1
 1.305494253431863e-05    8    3    6    2
 0.0006221539563589531    8    3    6    3
 -1.530439511346221e-05    8    3    6    4
 1.748907914422993e-05    8    3    6    5
 -0.0008362332962134995    8    3    6    6
 0.0005952809088192051    8    3    7    1
 -0.0001488117081668165    8    3    7    2
 -0.002154034991614923    8    3    7    3
 6.134390722931355e-05    8    3    7    4
 -0.0001111973848235286    8    3    7    5
 7.54369350098208e-05    8    3    7    6
 -0.002915338080690173    8    3    7    7
 -2.502297248505274e-05    8    3    8    1
 -0.002289931468904474    8    3    8    2
 0.0001716239612761043    8    3    8    3
 -7.969530207730076e-05    8    4    1    1
 -3.940880570107722e-06    8    4    2    1
 0.0002575254569803731    8    4    2    2
 -5.419069290042325e-05    8    4    3    1
 -9.446731126303148e-06    8    4    3    2
 6.798244300463406e-05    8    4    3    3
 0.0003426902816293684    8    4    4    1
 -1.407802550180385e-05    8    4    4    2
 -0.001620773477975954    8    4    4    3
 0.0007034434848997152    8    4    4    4
 -5.231038167723133e-05    8    4    5    1
 -2.202389296771791e-05    8    4    5    2
 0.0002337364458220002    8    4    5    3
 -0.000157037236509094    8    4    5    4
 0.0001357453559019908    8    4    5    5
 2.213303127148831e-06    8    4    6    1
 -6.899468306154982e-07    8    4    6    2
 4.89063551517028e-05    8    4    6    3
 8.110510252196857e-05    8    4    6    4
 -2.312847696118622e-05    8    4    6    5
 0.0005248906094010078    8    4    6    6
 2.338173652219245e-05    8    4    7    1
 0.0001651404058367208    8    4    7    2
 4.505837472456408e-05    8    4    7    3
 -0.002496779765457537    8    4    7    4
 0.0005672325136299777    8    4    7    5
 4.000075437361455e-05    8    4    7    6
 0.0008018244368077955    8    4    7    7
 -5.676593897980491e-06    8    4    8    1
 0.00308221825906485    8    4    8    2
 -0.0001215306451668728    8    4    8    3
 0.0006307276047491649    8    4    8    4
 -0.0005398783367939391    8    5    1    1
 -7.288671342264544e-06    8    5    2    1
 0.001479970405010822    8    5    2    2
 7.283203146276192e-05    8    5    3    1
 -7.301440621403256e-05    8    5    3    2
 -0.0005681454969101183    8    5    3    3
 -0.0001070662261947485    8    5    4    1
 -4.725095804172078e-05    8    5    4    2
 0.000352246710243705    8    5    4    3
 -0.0008414380573770609    8    5    4    4
 -4.691582293746017e-07    8    5    5    1
 -0.001173258306759996    8    5    5    2
 -6.522362719272009e-05    8    5    5    3
 0.0001270140902448324    8    5    5    4
 0.000920244696734804    8    5    5    5
 -9.746449540235614e-05    8    5    6    1
 1.926722377823546e-05    8    5    6    2
 0.0002272579331998131    8    5    6    3
 -0.0001461069719981043    8    5    6    4
 -9.011007608350899e-05    8    5    6    5
 -0.0007219491133815106    8    5    6    6
 -1.077085155074943e-05    8    5    7    1
 0.0007334575321539048    8    5    7    2
 -0.0001063327741161053    8    5    7    3
 0.0006030063006280788    8    5    7    4
 0.001509269613881022    8    5    7    5
 8.362596489767749e-05    8    5    7    6
 -0.0008165181214711195    8    5    7    7
 -3.887513675330801e-05    8    5    8    1
 0.0139753442164607    8    5    8    2
 -0.0006887447356445779    8    5    8    3
 0.003842686537390927    8    5    8    4
 0.03118889590287703    8    5    8    5
 0.001274863009328719    8    6    1    1
 -9.586454882682671e-06    8    6    2    1
 -0.001216032745010175    8    6    2    2
 -0.0005747825354493857    8    6    3    1
 5.057499987812149e-05    8    6    3    2
 0.001677695076512588    8    6    3    3
 -3.988603137327151e-05    8    6    4    1
 -1.765963555538554e-05    8    6    4    2
 6.81173821218195e-05    8    6    4    3
 0.001634758110603648    8    6    4    4
 -1.188269839569549e-06    8    6    5    1
 -2.998502845950311e-06    8    6    5    2
 4.144023307136364e-05    8    6    5    3
 -0.0003715655543705727    8    6    5    4
 -0.001065780362929585    8    6    5    5
 0.0004608843176236627    8    6    6    1
 -2.92879979248369e-05    8    6    6    2
 -0.001783160090936182    8    6    6    3
 0.0001347779856612471    8    6    6    4
 -6.384408624227007e-05    8    6    6    5
 0.001968388789466325    8    6    6    6
 0.000118473675476339    8    6    7    1
 5.498292295178112e-06    8    6    7    2
 4.453576069431115e-05    8    6    7    3
 4.403569178269005e-05    8    6    7    4
 -7.306933845979771e-06    8    6    7    5
 -0.002629592263324262    8    6    7    6
 0.001557146742127549    8    6    7    7
 -2.661963680602e-06    8    6    8    1
 0.000132589990934881    8    6    8    2
 -5.981327070755902e-06    8    6    8    3
 -1.451394294304144e-05    8    6    8    4
 -0.000144917519755638    8    6    8    5
 0.0001423317323568722    8    6    8    6
 -0.0136645360814817    8    7    1    1
 8.650484548601236e-05    8    7    2    1
 0.02515998104757698    8    7    2    2
 0.005064523422920976    8    7    3    1
 -0.0008560779886010859    8    7    3    2
 -0.01977602971952694    8    7    3    3
 0.0004362306564506889    8    7    4    1
 0.0006652477729648182    8    7    4    2
 -0.0007637408201136669    8    7    4    3
 -0.02461827639399846    8    7    4    4
 -1.73381394641196e-05    8    7    5    1
 0.002373801704059288    8    7    5    2
 -0.0007390086319769089    8    7    5    3
 0.00619587684347058    8    7    5    4
 0.02129012340612475    8    7    5    5
 -0.0006765248174566899    8    7    6    1
 2.355621938587413e-05    8    7    6    2
 -0.0002559710957950253    8    7    6    3
 9.009973255777288e-07    8    7    6    4
 -0.0002168138893243378    8    7    6    5
 -0.02567347841188552    8    7    6    6
 -0.001249546332789597    8    7    7    1
 -5.662373991267763e-05    8    7    7    2
 -0.003393660794573502    8    7    7    3
 0.0001152944365848947    8    7    7    4
 -0.0003656901448762657    8    7    7    5
 -9.085055510129767e-06    8    7    7    6
 -0.03369413524328504    8    7    7    7
 3.795380141607514e-05    8    7    8    1
 -0.0004653135875409596    8    7    8    2
 0.0001136638726194489    8    7    8    3
 -3.764827178378611e-05    8    7    8    4
 9.24997661586683e-05    8    7    8    5
 -0.0001556094252437599    8    7    8    6
 0.003138676205619425    8    7    8    7
 0.1343728116193776    8    8    1    1
 0.0001308608704973183    8    8    2    1
 0.6382341752551315    8    8    2    2
 -0.003799923980126756    8    8    3    1
 -0.01015675370428928    8    8    3    2
 0.1344234125300171    8    8    3    3
 0.004266730734570418    8    8    4    1
 0.009387053694787212    8    8    4    2
 -0.01297457931866868    8    8    4    3
 0.1464852288344488    8    8    4    4
 -0.001489085431590546    8    8    5    1
 0.03312772868166694    8    8    5    2
 -0.006109328805133336    8    8    5    3
 0.0542183122169428    8    8    5    4
 0.5737278546350036    8    8    5    5
 0.0007606457304213014    8    8    6    1
 0.0003145791364690804    8    8    6    2
 0.0002811079329972643    8    8    6    3
 -0.0001507450952649106    8    8    6    4
 -0.002075545833730403    8    8    6    5
 0.1345503143544707    8    8    6    6
 0.001585994217991203    8    8    7    1
 -0.0005044767960035871    8    8    7    2
 -0.001393428004881953    8    8    7    3
 -0.004648933624889967    8    8    7    4
 -0.0009369319004812607    8    8    7    5
 -0.0005338931164533237    8    8    7    6
 0.1332901077248342    8    8    7    7
 -0.000380399479667111    8    8    8    1
 -0.01129447713670262    8    8    8    2
 -0.0006212100154746959    8    8    8    3
 0.0002195051273620856    8    8    8    4
 0.001826099981855773    8    8    8    5
 -0.001344514181596277    8    8    8    6
 0.02844431765537188    8    8    8    7
 0.6964326787485841    8    8    8    8
 0.00111641476629209    9    1    1    1
 3.476138843935558e-05    9    1    2    1
 -0.0007499881522626401    9    1    2    2
 0.001941504046476178    9    1    3    1
 -3.684089112756704e-05    9    1    3    2
 -0.00182424605714935    9    1    3    3
 -0.001529379194300817    9    1    4    1
 0.0001029183510506945    9    1    4    2
 0.003201315948253167    9    1    4    3
 -0.002981466035110302    9    1    4    4
 0.0002667521538269542    9    1    5    1
 0.0002514750529501934    9    1    5    2
 -0.0004661176191296238    9    1    5    3
 0.0003637303607959312    9    1    5    4
 -0.0008444031463655662    9    1    5    5
 -0.0003311996422928053    9    1    6    1
 2.899488003907718e-06    9    1    6    2
 4.419725655950383e-05    9    1    6    3
 -0.0001090908796521078    9    1    6    4
 7.128657316875711e-06    9    1    6    5
 -0.003033046405914965    9    1    6    6
 -0.0006701565415222043    9    1    7    1
 -1.486152200109479e-06    9    1    7    2
 -2.532937617460389e-05    9    1    7    3
 0.0005602682118010524    9    1    7    4
 -8.97294477458821e-05    9    1    7    5
 0.0001219883442493711    9    1    7    6
 -0.002555783600498767    9    1    7    7
 3.368249833362368e-05    9    1    8    1
 9.898204765167073e-06    9    1    8    2
 6.156853171602761e-06    9    1    8    3
 -2.688473950522994e-05    9    1    8    4
 9.067413105960829e-06    9    1    8    5