 &FCI NORB=  27,NELEC=32,MS2=0,
  ORBSYM=1,1,1,1,1,1,1,1,1,1,1,1,1,1,1,1,1,1,1,1,1,1,1,1,1,1,1,
  ISYM=1,
 &END
 0.4110258332762864    1    1    1    1
 -0.01170148337436899    2    1    1    1
 0.007376511583145784    2    1    2    1
 0.2238960460770651    2    2    1    1
 0.04129750985855965    2    2    2    1
 0.7328861235775049    2    2    2    2
 0.01383972554568268    3    1    1    1
 -0.008815985536350738    3    1    2    1
 -0.02463745255486916    3    1    2    2
 0.1081654038028483    3    1    3    1
 -0.0191162481159758    3    2    1    1
 -0.002851738849517757    3    2    2    1
 0.02315219307169638    3    2    2    2
 -0.00386665623861527    3    2    3    1
 0.02092659895272979    3    2    3    2
 0.3918527140487832    3    3    1    1
 -0.00335429634143885    3    3    2    1
 0.273765789608501    3    3    2    2
 -0.07296918592860421    3    3    3    1
 -0.01084081138149654    3    3    3    2
 0.4636792154008565    3    3    3    3
 -0.02075023020810665    4    1    1    1
 0.003762164046573202    4    1    2    1
 0.0585023105668839    4    1    2    2
 0.03448638951670013    4    1    3    1
 0.004509024593585996    4    1    3    2
 -0.04287878361602871    4    1    3    3
 0.02600689485772163    4    1    4    1
 0.02166938220611858    4    2    1    1
 0.01572920543801628    4    2    2    1
 0.0205764202145342    4    2    2    2
 -0.001617108651569543    4    2    3    1
 -0.04703247524812478    4    2    3    2
 0.01251778016718584    4    2    3    3
 -0.001471207680756558    4    2    4    1
 0.1243509937645901    4    2    4    2
 0.06895014498345116    4    3    1    1
 -0.01067854788434137    4    3    2    1
 -0.1520929188029929    4    3    2    2
 -0.031687881202222    4    3    3    1
 -0.02020873690418213    4    3    3    2
 0.08604138372844802    4    3    3    3
 -0.0450613356898727    4    3    4    1
 0.01992297167080439    4    3    4    2
 0.1022807629853645    4    3    4    3
 0.2446462258302586    4    4    1    1
 0.02595576722231279    4    4    2    1
 0.6212361284300617    4    4    2    2
 -0.04640807623318113    4    4    3    1
 0.02624560170888233    4    4    3    2
 0.3119281107743441    4    4    3    3
 0.04084106694234196    4    4    4    1
 -0.007811465796047388    4    4    4    2
 -0.1193162388852768    4    4    4    3
 0.5947793328746406    4    4    4    4
 -0.004859411373586598    5    1    1    1
 0.001430991113628489    5    1    2    1
 0.01835978473664037    5    1    2    2
 0.0009401665602070492    5    1    3    1
 0.003253426343154731    5    1    3    2
 -0.003895966976463793    5    1    3    3
 0.003269372272013041    5    1    4    1
 -0.00493150412087576    5    1    4    2
 -0.007723898353386934    5    1    4    3
 0.01131834541032771    5    1    4    4
 0.002949058918208364    5    1    5    1
 0.01327281761542681    5    2    1    1
 0.0051556731898703    5    2    2    1
 0.04402836945512369    5    2    2    2
 0.006376916657226242    5    2    3    1
 0.004503218682083898    5    2    3    2
 0.0086070257972481    5    2    3    3
 -0.002577623481260803    5    2    4    1
 -0.007699473749123069    5    2    4    2
 0.001082866057564976    5    2    4    3
 0.002772940774001793    5    2    4    4
 0.01001615311332018    5    2    5    1
 0.1256689452368328    5    2    5    2
 0.002074117675070343    5    3    1    1
 0.001874053678388389    5    3    2    1
 0.008810192692795113    5    3    2    2
 -0.00182689809547202    5    3    3    1
 -0.0007660375932115941    5    3    3    2
 0.003794154996409073    5    3    3    3
 -0.0009627936347041976    5    3    4    1
 0.003121775466320043    5    3    4    2
 0.0007349927473809767    5    3    4    3
 0.004228486340916261    5    3    4    4
 -0.0009203090730026825    5    3    5    1
 0.01206384698669631    5    3    5    2
 0.006265787908073482    5    3    5    3
 0.001120013899374778    5    4    1    1
 -0.003716253357027085    5    4    2    1
 -0.01490952144482824    5    4    2    2
 0.0002343270706369403    5    4    3    1
 0.002671253475646993    5    4    3    2
 0.0002984429409114833    5    4    3    3
 -0.0005441123441354808    5    4    4    1
 -0.009596349118184183    5    4    4    2
 0.002549573702099507    5    4    4    3
 -0.00874980720776199    5    4    4    4
 0.004227381398204126    5    4    5    1
 -0.009417741009955859    5    4    5    2
 -0.01332261314880184    5    4    5    3
 0.03395369979586828    5    4    5    4
 0.2057904625290352    5    5    1    1
 0.03511222784749056    5    5    2    1
 0.6747238712232286    5    5    2    2
 -0.026415404495109    5    5    3    1
 0.03003843153210674    5    5    3    2
 0.2561996227712224    5    5    3    3
 0.05617328526305627    5    5    4    1
 -0.003393781821979192    5    5    4    2
 -0.1443969278674263    5    5    4    3
 0.5831805410218732    5    5    4    4
 0.01358870911433154    5    5    5    1
 -0.04461768284888526    5    5    5    2
 -0.001039353612682916    5    5    5    3
 -0.003545693742196024    5    5    5    4
 0.7479168141263534    5    5    5    5
 0.010235300717381    6    1    1    1
 0.0003643242191256554    6    1    2    1
 0.01610985715467673    6    1    2    2
 -0.001883408595206139    6    1    3    1
 0.0004178948960431066    6    1    3    2
 0.01199239054662428    6    1    3    3
 -0.0007220010999696958    6    1    4    1
 0.0001673929652963863    6    1    4    2
 -0.0005897089030510142    6    1    4    3
 0.01477718870775022    6    1    4    4
 5.153324054378384e-05    6    1    5    1
 0.001451121969365034    6    1    5    2
 0.0004124000573501852    6    1    5    3
 5.103276038273135e-05    6    1    5    4
 0.01405727280609545    6    1    5    5
 0.006380418873168122    6    1    6    1
 0.00287995227213644    6    2    1    1
 0.005372283302305023    6    2    2    1
 0.03630733058357413    6    2    2    2
 -0.001036378790529428    6    2    3    1
 -0.005112005863342084    6    2    3    2
 0.004033961813629989    6    2    3    3
 0.002907859264025682    6    2    4    1
 0.01833715313607499    6    2    4    2
 -0.006184915164309563    6    2    4    3
 0.02181014231462558    6    2    4    4
 0.00108892947879871    6    2    5    1
 0.01089020243120822    6    2    5    2
 0.002088878310585043    6    2    5    3
 -0.003118915856072343    6    2    5    4
 0.02406887126017411    6    2    5    5
 0.002914268883299531    6    2    6    1
 0.006827962887159611    6    2    6    2
 -0.003796495850506219    6    3    1    1
 -0.001527326335407679    6    3    2    1
 -0.02549244501671546    6    3    2    2
 0.007032242335681301    6    3    3    1
 -0.001872250820027707    6    3    3    2
 -0.01171177383410759    6    3    3    3
 -0.0003718830066906766    6    3    4    1
 0.0009248932185092031    6    3    4    2
 0.004626223804765862    6    3    4    3
 -0.0252406069278423    6    3    4    4
 -0.0004963067648351794    6    3    5    1
 0.001201523198001594    6    3    5    2
 -0.0001000548944190156    6    3    5    3
 -0.0004039009147485862    6    3    5    4
 -0.02411728918706047    6    3    5    5
 -0.004280571991931589    6    3    6    1
 -0.002677851455096592    6    3    6    2
 0.004562042033596426    6    3    6    3
 -0.004895685536344195    6    4    1    1
 0.004541579400628993    6    4    2    1
 0.06662939199437953    6    4    2    2
 -0.0002871522957116298    6    4    3    1
 0.004414159139638105    6    4    3    2
 4.305325754314527e-05    6    4    3    3
 0.01015492252775734    6    4    4    1
 -0.000247995945863476    6    4    4    2
 -0.02622389419796845    6    4    4    3
 0.05780851125230077    6    4    4    4
 0.002315274615253916    6    4    5    1
 -0.001039172848703834    6    4    5    2
 -0.0001978391512948525    6    4    5    3
 0.0007390047257341787    6    4    5    4
 0.061577376042681    6    4    5    5
 0.00647393067462964    6    4    6    1
 0.006106715408692068    6    4    6    2
 -0.006891792411317797    6    4    6    3
 0.01589751804612766    6    4    6    4
 -0.001962314045955916    6    5    1    1
 0.00252605490893903    6    5    2    1
 0.03889086089189332    6    5    2    2
 -0.001393474721768794    6    5    3    1
 0.003966698405743985    6    5    3    2
 0.00190151385958923    6    5    3    3
 0.004318884875252701    6    5    4    1
 -0.003685180137954702    6    5    4    2
 -0.01243241213853044    6    5    4    3
 0.02937863250145508    6    5    4    4
 0.002359374393300257    6    5    5    1
 0.002995337771613583    6    5    5    2
 -0.001201658594292895    6    5    5    3
 0.003960935296462115    6    5    5    4
 0.04049068927674892    6    5    5    5
 0.00467516307729147    6    5    6    1
 0.003721569219166019    6    5    6    2
 -0.004564151849321747    6    5    6    3
 0.009365898579787781    6    5    6    4
 0.007542118574955806    6    5    6    5
 0.2234667909817112    6    6    1    1
 0.002294049174140839    6    6    2    1
 0.1885800836087463    6    6    2    2
 -0.009132635091937133    6    6    3    1
 -0.01039049368093695    6    6    3    2
 0.2247983309913501    6    6    3    3
 0.0008968045787686365    6    6    4    1
 0.02040049998944543    6    6    4    2
 0.01318013702582288    6    6    4    3
 0.1971447783271759    6    6    4    4
 0.001569839800237882    6    6    5    1
 0.002785030766899746    6    6    5    2
 -0.002662719154966832    6    6    5    3
 0.002703451102966745    6    6    5    4
 0.1829260796388281    6    6    5    5
 -0.04669420798125797    6    6    6    1
 -0.01990589467222124    6    6    6    2
 0.03388294179474556    6    6    6    3
 -0.05562319301803605    6    6    6    4
 -0.04288791306132066    6    6    6    5
 0.7348924745550683    6    6    6    6
 -0.002773822195026466    7    1    1    1
 0.0008401786251210283    7    1    2    1
 0.01038346132790478    7    1    2    2
 0.002183041791300598    7    1    3    1
 0.001051830333158819    7    1    3    2
 -0.003956358709433375    7    1    3    3
 0.002929402108788357    7    1    4    1
 -0.001559645728950146    7    1    4    2
 -0.006134009133471556    7    1    4    3
 0.008023038276165028    7    1    4    4
 0.0004566512104103382    7    1    5    1
 -0.0007322614313947009    7    1    5    2
 -4.833534778762057e-05    7    1    5    3
 -0.0001936408162397333    7    1    5    4
 0.01170890526471151    7    1    5    5
 0.0003085808466863698    7    1    6    1
 0.000838918249079177    7    1    6    2
 -0.0005234263249226946    7    1    6    3
 0.001940182230188995    7    1    6    4
 0.001093117392225644    7    1    6    5
 -0.002041074844307481    7    1    6    6
 0.00235394020598673    7    1    7    1
 0.002895577671371205    7    2    1    1
 0.001361303577449343    7    2    2    1
 -0.008524407372548335    7    2    2    2
 -0.003263339089522676    7    2    3    1
 -0.004859546787967904    7    2    3    2
 0.003167516641929495    7    2    3    3
 -0.003606562535446508    7    2    4    1
 -0.00195672872190687    7    2    4    2
 0.003421683963926361    7    2    4    3
 0.006529396484113298    7    2    4    4
 -0.001071941032266973    7    2    5    1
 0.003713852001456179    7    2    5    2
 0.001631023397254164    7    2    5    3
 6.591327883655227e-05    7    2    5    4
 0.0005111662607196856    7    2    5    5
 0.00121028736321534    7    2    6    1
 0.004769958934753968    7    2    6    2
 -0.0007728287533698347    7    2    6    3
 0.001046295918963297    7    2    6    4
 0.0003251077353364166    7    2    6    5
 -0.006138931815946123    7    2    6    6
 0.009659810212830468    7    2    7    1
 0.1274551998753702    7    2    7    2
 0.006892850510052987    7    3    1    1
 -0.001289997990522243    7    3    2    1
 -0.02016706186656265    7    3    2    2
 -0.002870813151430693    7    3    3    1
 -0.002682047299219466    7    3    3    2
 0.008351346855492214    7    3    3    3
 -0.005221097697483497    7    3    4    1
 0.000862546531843633    7    3    4    2
 0.01133487400134084    7    3    4    3
 -0.01261390145877311    7    3    4    4
 -0.0009279498028109232    7    3    5    1
 0.001371682836595074    7    3    5    2
 0.0001975448075688711    7    3    5    3
 9.879340569929591e-05    7    3    5    4
 -0.01960364471540883    7    3    5    5
 -0.0003808026655860114    7    3    6    1
 -0.0008905599573692468    7    3    6    2
 0.0009561016107915554    7    3    6    3
 -0.003504022271020776    7    3    6    4
 -0.001790803407426644    7    3    6    5
 0.003198171632526907    7    3    6    6
 -0.002241422348029262    7    3    7    1
 0.007760870250924035    7    3    7    2
 0.007033413052084587    7    3    7    3
 0.005629796104985423    7    4    1    1
 -0.001095776330481936    7    4    2    1
 -0.01058308036482149    7    4    2    2
 -0.003364185675972503    7    4    3    1
 -0.002375311543006979    7    4    3    2
 0.007347101423291517    7    4    3    3
 -0.003016225762443423    7    4    4    1
 0.008051552103938577    7    4    4    2
 0.00729500060217781    7    4    4    3
 -0.01016200486827637    7    4    4    4
 -0.0008697707511623907    7    4    5    1
 -0.0006097845432642673    7    4    5    2
 -0.0001070192231661597    7    4    5    3
 0.0001418800702454343    7    4    5    4
 -0.0117146146810406    7    4    5    5
 0.000184119614295122    7    4    6    1
 0.0002390677132174651    7    4    6    2
 -0.0002634502559924338    7    4    6    3
 -0.0008750766230926903    7    4    6    4
 -0.001053238105743612    7    4    6    5
 0.001641576556457738    7    4    6    6
 0.003663318829775017    7    4    7    1
 -0.006541694148204122    7    4    7    2
 -0.01168689071144266    7    4    7    3
 0.03269416786775761    7    4    7    4
 0.0007028995707113653    7    5    1    1
 7.749406859483465e-05    7    5    2    1
 0.009196522798714    7    5    2    2
 0.0001058189310668069    7    5    3    1
 0.001479615633445237    7    5    3    2
 0.001044091172651473    7    5    3    3
 0.000816705940851673    7    5    4    1
 -0.0004575707167467689    7    5    4    2
 -0.00233053092310782    7    5    4    3
 0.00497001444382996    7    5    4    4
 0.001621842750810243    7    5    5    1
 0.003658222112385848    7    5    5    2
 -0.001259739944123001    7    5    5    3
 -0.001427425445736303    7    5    5    4
 0.00501741025665266    7    5    5    5
 0.0002584277165605489    7    5    6    1
 0.0001949554293360718    7    5    6    2
 -0.0003130035559621011    7    5    6    3
 0.0005762398114547087    7    5    6    4
 0.001813411454658296    7    5    6    5
 0.001327587770486171    7    5    6    6
 0.0004646553033199945    7    5    7    1
 -0.01337370397466139    7    5    7    2
 -0.000718118630343663    7    5    7    3
 3.960590178565092e-05    7    5    7    4
 0.03910020047220768    7    5    7    5
 0.001206448259562576    7    6    1    1
 0.001415890647049669    7    6    2    1
 0.02002561010608224    7    6    2    2
 -0.0003493161054877331    7    6    3    1
 0.000840759901566701    7    6    3    2
 0.002507332229293619    7    6    3    3
 0.002240124199590634    7    6    4    1
 0.0005376696842571283    7    6    4    2
 -0.006010402138593694    7    6    4    3
 0.01561063904867366    7    6    4    4
 0.0006623951493412202    7    6    5    1
 0.0005573533278352521    7    6    5    2
 0.0001373713791842669    7    6    5    3
 -0.0004052004538272766    7    6    5    4
 0.01866231832715686    7    6    5    5
 0.001423042860495308    7    6    6    1
 0.00183537771128704    7    6    6    2
 -0.001492300616908832    7    6    6    3
 0.003540594129915682    7    6    6    4
 0.002179489787022801    7    6    6    5
 -0.009586912168448291    7    6    6    6
 0.001880457913370168    7    6    7    1
 0.005826895591821788    7    6    7    2
 -0.00247522593075354    7    6    7    3
 0.004033006402154297    7    6    7    4
 0.002482150211239376    7    6    7    5
 0.002597477387437436    7    6    7    6
 0.2112194143668307    7    7    1    1
 0.03841770166861447    7    7    2    1
 0.7118714521119203    7    7    2    2
 -0.02818348807976877    7    7    3    1
 0.02966293457994122    7    7    3    2
 0.2640765137494615    7    7    3    3
 0.05795805241965633    7    7    4    1
 -0.001630554966322393    7    7    4    2
 -0.1509259773459933    7    7    4    3
 0.6055946557576755    7    7    4    4
 0.01594886204847227    7    7    5    1
 -0.001590973700745113    7    7    5    2
 0.003974678347566559    7    7    5    3
 -0.008543128538795039    7    7    5    4
 0.67732640373577    7    7    5    5
 0.01541655927914554    7    7    6    1
 0.02969006086833426    7    7    6    2
 -0.0254234341485012    7    7    6    3
 0.06488775214228289    7    7    6    4
 0.0376432833472985    7    7    6    5
 0.1837346784599793    7    7    6    6
 0.01437211033864782    7    7    7    1
 0.006728795863294123    7    7    7    2
 -0.02345875938348273    7    7    7    3
 -0.01469985251843514    7    7    7    4
 0.006402526761652616    7    7    7    5
 0.02301795085916996    7    7    7    6
 0.7852075271412303    7    7    7    7
 -0.006538515682115463    8    1    1    1
 0.000151853618550525    8    1    2    1
 -0.002007720850337237    8    1    2    2
 0.0004775903665331822    8    1    3    1
 0.0004426463915698764    8    1    3    2
 -0.008577045219138112    8    1    3    3
 0.0006249047869718461    8    1    4    1
 -0.0003705425651447744    8    1    4    2
 -0.002810057846052276    8    1    4    3
 -0.00306944225716207    8    1    4    4
 2.82454405681061e-05    8    1    5    1
 -0.0001397659582591009    8    1    5    2
 -0.0001576630031125324    8    1    5    3
 -3.216811056940314e-05    8    1    5    4
 -0.001844468635923995    8    1    5    5
 -1.456456088686259e-05    8    1    6    1
 -1.398799737351097e-05    8    1    6    2
 0.0002314017738307252    8    1    6    3
 0.0002448924154101638    8    1    6    4
 3.802556622129986e-05    8    1    6    5
 -0.002364042518529481    8    1    6    6
 0.0002690964932218851    8    1    7    1
 -0.0001678597880123163    8    1    7    2
 -0.0001267021977829006    8    1    7    3
 -0.0002715303114695435    8    1    7    4
 5.304475951213572e-05    8    1    7    5
 8.715621741518027e-06    8    1    7    6
 -0.001814563216627056    8    1    7    7
 0.009534658059677585    8    1    8    1
 -3.944854517810484e-05    8    2    1    1
 0.0008884841448135513    8    2    2    1
 0.007993203290731306    8    2    2    2
 -0.0003896669713017868    8    2    3    1
 -0.0001425714660720292    8    2    3    2
 0.0005502179533964902    8    2    3    3
 0.0008619241229551275    8    2    4    1
 0.001947131078376638    8    2    4    2
 -0.002021849550520714    8    2    4    3
 0.005187555459714848    8    2    4    4
 0.0003167115992708054    8    2    5    1
 0.001762874830604977    8    2    5    2
 0.0002855567233605911    8    2    5    3
 -0.0005766034839404261    8    2    5    4
 0.005719407422434123    8    2    5    5
 0.0001856077891273175    8    2    6    1
 0.0007762576424535537    8    2    6    2
 -0.0002790496200805125    8    2    6    3
 0.0008695849298756653    8    2    6    4
 0.0004743012868251481    8    2    6    5
 0.0004105546651146726    8    2    6    6
 -9.567450481403746e-05    8    2    7    1
 -0.003036648210995046    8    2    7    2
 -0.0004939216058777627    8    2    7    3
 0.0001382225166380844    8    2    7    4
 0.0005281651493627466    8    2    7    5
 0.0001488891599872552    8    2    7    6
 0.006717129143780292    8    2    7    7
 -0.0008250062919013593    8    2    8    1
 0.0003406503218481997    8    2    8    2
 -0.004344652972486557    8    3    1    1
 0.0003775724639898461    8    3    2    1
 -0.00350703170912768    8    3    2    2
 -0.00838399889354851    8    3    3    1
 0.0003235956060486152    8    3    3    2
 0.0009366030760596831    8    3    3    3
 -0.003229079494562714    8    3    4    1
 -0.000296910628566924    8    3    4    2
 0.002584367825753377    8    3    4    3
 -0.001932843134168069    8    3    4    4
 -0.0003504089320143045    8    3    5    1
 -0.0004621260343929187    8    3    5    2
 2.814972208102018e-05    8    3    5    3
 -0.0002355626202796619    8    3    5    4
 -0.003023988136974697    8    3    5    5
 0.0001213248298321483    8    3    6    1
 -0.0002175769368107181    8    3    6    2
 -0.0001160926862857114    8    3    6    3
 -0.0004825064844190479    8    3    6    4
 -0.0001504337736296459    8    3    6    5
 -0.000900261663279326    8    3    6    6
 -6.631060078141627e-05    8    3    7    1
 -1.387003408581416e-05    8    3    7    2
 0.0002311178297069998    8    3    7    3
 0.0005548141101157203    8    3    7    4
 -5.507403154895157e-05    8    3    7    5
 -0.0001212057144292241    8    3    7    6
 -0.002916088900232076    8    3    7    7
 0.005441813863523481    8    3    8    1
 -0.0004548150728334818    8    3    8    2
 0.004190812104316511    8    3    8    3
 -0.002487484457328114    8    4    1    1
 0.0009213966611589763    8    4    2    1
 0.006417064497394858    8    4    2    2
 -0.004617253963201755    8    4    3    1
 0.0002681757009697577    8    4    3    2
 0.000997492254957189    8    4    3    3
 -0.0004004004016585823    8    4    4    1
 0.0007417851872918321    8    4    4    2
 -0.00162794874862725    8    4    4    3
 0.006369025879138202    8    4    4    4
 9.660712095583707e-05    8    4    5    1
 -0.0008580540667934299    8    4    5    2
 -0.0001552290108975534    8    4    5    3
 0.0001681365901327076    8    4    5    4
 0.00625739242502515    8    4    5    5
 0.0002585684226913572    8    4    6    1
 0.0004590983170932861    8    4    6    2
 -0.0004690908693697178    8    4    6    3
 0.0009839432384449419    8    4    6    4
 0.0005076870444583655    8    4    6    5
 1.263140511112288e-05    8    4    6    6
 6.775711049813957e-06    8    4    7    1
 0.0004267834838262018    8    4    7    2
 0.0001339344403799294    8    4    7    3
 -0.0008205477120088199    8    4    7    4
 2.828191446587216e-05    8    4    7    5
 0.0001280607324418312    8    4    7    6
 0.006567984401793589    8    4    7    7
 0.0007828465684504202    8    4    8    1
 0.0001022051527125376    8    4    8    2
 0.000975300609892759    8    4    8    3
 0.0006159168708370122    8    4    8    4
 -0.002378596475880082    8    5    1    1
 0.0006250393800240254    8    5    2    1
 0.005664032039943801    8    5    2    2
 -0.001920427426753217    8    5    3    1
 0.0007400127784954337    8    5    3    2
 -0.0007966923092139612    8    5    3    3
 0.0003579947654034924    8    5    4    1
 -0.0006859697874569713    8    5    4    2
 -0.002171138143200522    8    5    4    3
 0.004441869679951469    8    5    4    4
 0.0002594197742826082    8    5    5    1
 0.0001915419232897142    8    5    5    2
 -0.0001705216648507925    8    5    5    3
 0.0004186440301094438    8    5    5    4
 0.006354417115719845    8    5    5    5
 6.504610801421311e-05    8    5    6    1
 0.0002701418765041798    8    5    6    2
 -0.0002356167546253663    8    5    6    3
 0.0007245445129658066    8    5    6    4
 0.0005780084688149602    8    5    6    5
 0.0003564680333465904    8    5    6    6
 0.000169379045269589    8    5    7    1
 0.0005780023888615798    8    5    7    2
 -0.0002526557610023078    8    5    7    3
 -0.0001771420075036805    8    5    7    4
 -0.0008695590996590858    8    5    7    5
 0.0001145094642518199    8    5    7    6
 0.005660489874722988    8    5    7    7
 -3.14803105489936e-05    8    5    8    1
 0.00013229529975475    8    5    8    2
 0.0002549797092808274    8    5    8    3
 0.0003270879225092493    8    5    8    4
 0.0003324251761163271    8    5    8    5
 0.002217279915551324    8    6    1    1
 1.294822138705908e-05    8    6    2    1
 0.00285243862275921    8    6    2    2
 0.001218378163240914    8    6    3    1
 -6.597944684928322e-05    8    6    3    2
 0.001770887945961122    8    6    3    3
 0.0004508691014540495    8    6    4    1
 0.0002525422405980852    8    6    4    2
 -0.0003508518461994002    8    6    4    3
 0.002382094887705018    8    6    4    4
 3.469738460470255e-05    8    6    5    1
 0.0002399822710773184    8    6    5    2
 9.625431569323698e-05    8    6    5    3
 -2.64703387536961e-05    8    6    5    4
 0.002546837558973162    8    6    5    5
 0.000926662224406059    8    6    6    1
 0.00050298221132959    8    6    6    2
 -0.0006628656328926683    8    6    6    3
 0.001130975694164457    8    6    6    4
 0.0009132013860194457    8    6    6    5
 -0.009330661062783074    8    6    6    6
 7.475664765889835e-05    8    6    7    1
 1.974755511020317e-05    8    6    7    2
 -6.844201161927048e-05    8    6    7    3
 -0.000115133714134795    8    6    7    4
 -6.697776059101033e-05    8    6    7    5
 0.0003207535889978591    8    6    7    6
 0.002534700584963853    8    6    7    7
 0.0003736815778959536    8    6    8    1
 -5.778255018221173e-05    8    6    8    2
 -2.456168752294242e-05    8    6    8    3
 -0.000152922888245053    8    6    8    4
 -0.0001314007458153297    8    6    8    5
 0.0004384578207887059    8    6    8    6
 0.001974705166814869    8    7    1    1
 -0.001132624592979886    8    7    2    1
 -0.01296633019004795    8    7    2    2
 0.002218925009345751    8    7    3    1
 -0.001083280864529478    8    7    3    2
 -0.000465287691731723    8    7    3    3
 -0.001262483718737201    8    7    4    1
 0.0003697246056055424    8    7    4    2
 0.004238386957442033    8    7    4    3
 -0.010456025558919    8    7    4    4
 -0.0003373972960338908    8    7    5    1
 0.0007297923349836476    8    7    5    2
 -2.279448730718394e-05    8    7    5    3
 0.0002129638475294837    8    7    5    4
 -0.01260289348787418    8    7    5    5
 -0.0002890358630824104    8    7    6    1
 -0.0005969477942659779    8    7    6    2
 0.0006314994780611551    8    7    6    3
 -0.001654312229605396    8    7    6    4
 -0.001008659567648541    8    7    6    5
 0.0005040873599983638    8    7    6    6
 -0.0001616076106453165    8    7    7    1
 0.001171043227602058    8    7    7    2
 0.0005651119528131752    8    7    7    3
 0.0007869819355697229    8    7    7    4
 0.0001836084127932    8    7    7    5
 -0.0003530492980035609    8    7    7    6
 -0.01492789742851457    8    7    7    7
 0.00113305631485293    8    7    8    1
 -0.0003310311391869642    8    7    8    2
 0.0004238742164640627    8    7    8    3
 -0.000287128671386095    8    7    8    4
 -0.000330914905092643    8    7    8    5
 7.018279278927384e-05    8    7    8    6
 0.0007576213016319172    8    7    8    7
 0.2850819917688286    8    8    1    1
 -0.01081839494285014    8    8    2    1
 0.1652896713593451    8    8    2    2
 0.06832455062391951    8    8    3    1
 -0.01066355711895582    8    8    3    2
 0.2329472861434062    8    8    3    3
 0.007857185681793976    8    8    4    1
 0.007339468340060439    8    8    4    2
 0.02171092285456066    8    8    4    3
 0.1642331527473737    8    8    4    4
 -6.681861674726931e-06    8    8    5    1
 0.01496610534938834    8    8    5    2
 0.002305935392661464    8    8    5    3
 0.0009265803127160273    8    8    5    4
 0.1526383784085148    8    8    5    5
 0.004875156209315713    8    8    6    1
 0.001281850100970833    8    8    6    2
 0.0003060968173951954    8    8    6    3
 -0.002152342831743719    8    8    6    4
 -0.001474995820930852    8    8    6    5
 0.1628243531308786    8    8    6    6
 0.0003664531696102175    8    8    7    1
 -0.001623395889473368    8    8    7    2
 0.002532926311427599    8    8    7    3
 0.000834485386773675    8    8    7    4
 0.0003664883877206398    8    8    7    5
 0.0008959376630377924    8    8    7    6
 0.1560157254708612    8    8    7    7
 0.05153249646717462    8    8    8    1
 -0.006395905093277017    8    8    8    2
 0.01830896558527201    8    8    8    3
 -0.004459175893276525    8    8    8    4
 -0.007171373839353483    8    8    8    5
 0.007145356880079642    8    8    8    6
 0.01533676033761099    8    8    8    7
 0.8301474173074495    8    8    8    8
 0.01115850880346217    9    1    1    1
 -0.0002709872237613744    9    1    2    1
 0.007900040876911665    9    1    2    2
 0.0002057583693903763    9    1    3    1
 -0.000353068778356107    9    1    3    2
 0.0116474745745554    9    1    3    3
 -0.0007335707574233593    9    1    4    1
 0.0002783867309822911    9    1    4    2
 0.001673576627985729    9    1    4    3
 0.008001497634976274    9    1    4    4
 0.0001518650503626151    9    1    5    1
 0.0008880268307590971    9    1    5    2
 0.0002722613300663276    9    1    5    3
 0.0001352841097365713    9    1    5    4
 0.006509241430076075    9    1    5    5
 0.001887757824214666    9    1    6    1
 0.0009431457278822289    9    1    6    2
 -0.001203477766339753    9    1    6    3
 0.00179929337247628    9    1    6    4
 0.0008316146594221631    9    1    6    5
 -0.008355015953749156    9    1    6    6
 -9.261675399698549e-05    9    1    7    1
 0.0006113451385718025    9    1    7    2
 9.546245069462115e-05    9    1    7    3
 0.0001433316670914119    9    1    7    4
 0.0001965728147652669    9    1    7    5
 0.000881478742241855    9    1    7    6
 0.007460293544797439    9    1    7    7
 -0.000448260535028948    9    1    8    1
 0.0001149509912543306    9    1    8    2
 -0.0005451585770042391    9    1    8    3
 -5.858215818547611e-05    9    1    8    4
 -0.0001841225503108512    9    1    8    5
 0.0002713281719628349    9    1    8    6
 5.837274407610098e-05    9    1    8    7
 0.00708797242573119    9    1    8    8
 0.002749493547134126    9    1    9    1
 0.001746484160184764    9    2    1    1
 0.003019173167838763    9    2    2    1
 0.02137711448143271    9    2    2    2