 &FCI NORB=  12,NELEC=21,MS2=3,
  ORBSYM=1,1,1,1,1,1,1,1,1,1,1,1,
  ISYM=1,
 &END
 0.634824220301219    1    1    1    1
 0.08955876497196703    2    1    1    1
 0.1634250236506166    2    1    2    1
 0.5046615917008547    2    2    1    1
 -0.07718976874840232    2    2    2    1
 0.5782488417236312    2    2    2    2
 -0.003479825682795193    3    1    1    1
 -0.00754860166273671    3    1    2    1
 0.002995102401813578    3    1    2    2
 0.0004450687467119716    3    1    3    1
 -0.01296530666292364    3    2    1    1
 -0.002319803137949149    3    2    2    1
 -0.008114262793673143    3    2    2    2
 -7.474963801935353e-05    3    2    3    1
 0.001290781281245921    3    2    3    2
 0.09336752304164253    3    3    1    1
 -0.01245970929974338    3    3    2    1
 0.1082166781011978    3    3    2    2
 0.002186989361317633    3    3    3    1
 0.002609345739757148    3    3    3    2
 0.5618598880698549    3    3    3    3
 0.007822865011117197    4    1    1    1
 0.0437048170399469    4    1    2    1
 -0.02494295966332862    4    1    2    2
 -0.002689947298141759    4    1    3    1
 0.0009849860298373711    4    1    3    2
 -0.002676512249786004    4    1    3    3
 0.01757910578736879    4    1    4    1
 0.07337436628006205    4    2    1    1
 0.01939488776673058    4    2    2    1
 0.03686258371889705    4    2    2    2
 0.0003842752313001014    4    2    3    1
 -0.008558467333324424    4    2    3    2
 -0.01117386070777818    4    2    3    3
 -0.006051041085731911    4    2    4    1
 0.05865209933555093    4    2    4    2
 -0.03212994866953298    4    3    1    1
 0.01278354937915465    4    3    2    1
 -0.04923036461272769    4    3    2    2
 -0.0001158833439633745    4    3    3    1
 -0.001264417657119337    4    3    3    2
 0.06239144097580047    4    3    3    3
 0.00184497178994489    4    3    4    1
 0.01176129806882649    4    3    4    2
 0.02157092491789432    4    3    4    3
 0.3048340446831003    4    4    1    1
 -0.09741663480349437    4    4    2    1
 0.433338314657449    4    4    2    2
 0.002535040558171785    4    4    3    1
 0.01092686574882655    4    4    3    2
 0.1516108200549117    4    4    3    3
 -0.01456897121630829    4    4    4    1
 -0.0880125608415899    4    4    4    2
 -0.07247625966250958    4    4    4    3
 0.6265484178486388    4    4    4    4
 0.08063669707827681    5    1    1    1
 0.03460339015030309    5    1    2    1
 0.008181981449218643    5    1    2    2
 -0.0006960101281915231    5    1    3    1
 -0.0007205327664445892    5    1    3    2
 0.0001526318192951834    5    1    3    3
 -0.001283586568292355    5    1    4    1
 0.003033597825019611    5    1    4    2
 0.0009034262969580196    5    1    4    3
 -0.006325957299843069    5    1    4    4
 0.07353391927635855    5    1    5    1
 0.04362793794534753    5    2    1    1
 -0.05402243012402866    5    2    2    1
 0.07242337307702963    5    2    2    2
 0.003181211774277699    5    2    3    1
 -0.0008226598335812298    5    2    3    2
 0.006466148424961425    5    2    3    3
 -0.02281586171975843    5    2    4    1
 0.001059196265863054    5    2    4    2
 -0.005984930204642913    5    2    4    3
 0.0460280251544426    5    2    4    4
 0.04176279955336051    5    2    5    1
 0.07001071375781082    5    2    5    2
 -0.001322692735568817    5    3    1    1
 0.005774419084422389    5    3    2    1
 -0.006346910460038303    5    3    2    2
 -0.0003552855634917452    5    3    3    1
 -0.0002686331480887461    5    3    3    2
 -0.0005006046289531475    5    3    3    3
 0.001811424708648036    5    3    4    1
 0.002515093009942704    5    3    4    2
 0.002759682520860784    5    3    4    3
 -0.01122817554986011    5    3    4    4
 -0.002047077614191814    5    3    5    1
 -0.004959155483339566    5    3    5    2
 0.001837175238483886    5    3    5    3
 -0.01978941089485581    5    4    1    1
 -0.04311760331400523    5    4    2    1
 0.01879949198060962    5    4    2    2
 0.002120438596716851    5    4    3    1
 0.00256267206870054    5    4    3    2
 0.01305122075808707    5    4    3    3
 -0.0130545058207773    5    4    4    1
 -0.01891262038177123    5    4    4    2
 -0.006996307950576555    5    4    4    3
 0.05933824198967382    5    4    4    4
 0.01177342739632408    5    4    5    1
 0.03371692539788806    5    4    5    2
 -0.003523618722041514    5    4    5    3
 0.02679959018479779    5    4    5    4
 0.5414186337357672    5    5    1    1
 0.1443550828480016    5    5    2    1
 0.4111141505827025    5    5    2    2
 -0.007257489283495188    5    5    3    1
 -0.01246798280580936    5    5    3    2
 0.08749394688937809    5    5    3    3
 0.03790349989453692    5    5    4    1
 0.07696713660059067    5    5    4    2
 -0.02298940587662805    5    5    4    3
 0.2397575248504419    5    5    4    4
 -0.009383346439596076    5    5    5    1
 -0.07391898133109723    5    5    5    2
 0.007226307127259333    5    5    5    3
 -0.07803865857241607    5    5    5    4
 0.7006015878338467    5    5    5    5
 0.006590272573100886    6    1    1    1
 0.008052731594537078    6    1    2    1
 -0.003977202240501464    6    1    2    2
 -0.0003264029932001244    6    1    3    1
 0.0001238515068928605    6    1    3    2
 0.002451248602809992    6    1    3    3
 0.00183723187923419    6    1    4    1
 -0.0009654588500017463    6    1    4    2
 0.0008492773269860829    6    1    4    3
 -0.002946381645345313    6    1    4    4
 0.00749624287904439    6    1    5    1
 0.00202754962496912    6    1    5    2
 2.024026085519859e-05    6    1    5    3
 0.0001479832149870477    6    1    5    4
 0.0003776288542303159    6    1    5    5
 0.002236086465141563    6    1    6    1
 0.01309779139474256    6    2    1    1
 -0.0046181266049155    6    2    2    1
 0.01297541994683138    6    2    2    2
 0.0004261845347590333    6    2    3    1
 -0.0009549272855760844    6    2    3    2
 -0.001856367898957796    6    2    3    3
 -0.003451029833385606    6    2    4    1
 0.006152226838065471    6    2    4    2
 -8.229397341380015e-05    6    2    4    3
 -0.00243261007684226    6    2    4    4
 0.005020803748975738    6    2    5    1
 0.008175361060320258    6    2    5    2
 -0.0005486152049141516    6    2    5    3
 0.002060294034137209    6    2    5    4
 -0.0001656507235034237    6    2    5    5
 0.0001355976433975573    6    2    6    1
 0.002379637759081282    6    2    6    2
 0.004247553158500502    6    3    1    1
 5.024020547552918e-05    6    3    2    1
 0.004330337014906855    6    3    2    2
 0.0007969438825661523    6    3    3    1
 -0.0003026243680264115    6    3    3    2
 0.02765236954743821    6    3    3    3
 0.000100159933647362    6    3    4    1
 -0.0007955612475944044    6    3    4    2
 -0.006529322253937239    6    3    4    3
 0.004751046229658263    6    3    4    4
 -8.278394782956826e-05    6    3    5    1
 -0.0004819408600895596    6    3    5    2
 -0.01164796893386748    6    3    5    3
 -0.00144684424490633    6    3    5    4
 0.00415894097159704    6    3    5    5
 -0.0003612205792354892    6    3    6    1
 0.001637265233329782    6    3    6    2
 0.1078972173637688    6    3    6    3
 0.02021875209966932    6    4    1    1
 -0.01352744862358019    6    4    2    1
 0.03573484972661244    6    4    2    2
 0.0004820998939756289    6    4    3    1
 0.0008816786319499841    6    4    3    2
 -0.02701070627915448    6    4    3    3
 -0.002807472273292651    6    4    4    1
 -0.00903109907184926    6    4    4    2
 -0.01369466666539208    6    4    4    3
 0.05282030963863202    6    4    4    4
 0.0008186600341189038    6    4    5    1
 0.00801526466012735    6    4    5    2
 -0.003345088637289322    6    4    5    3
 0.007155047278202183    6    4    5    4
 0.007333780852865261    6    4    5    5
 -0.0004805572089704455    6    4    6    1
 0.0005804822143990651    6    4    6    2
 0.01614496593550705    6    4    6    3
 0.01130173937462928    6    4    6    4
 0.0475947808673691    6    5    1    1
 0.0129859189871743    6    5    2    1
 0.03571462092960261    6    5    2    2
 -0.000748587595825365    6    5    3    1
 -0.001489149643334909    6    5    3    2
 -0.04440586403496972    6    5    3    3
 0.003246266990111079    6    5    4    1
 0.007852025013458866    6    5    4    2
 -0.009542555309701866    6    5    4    3
 0.01617325493219716    6    5    4    4
 -0.0002609221803847083    6    5    5    1
 -0.005778821417972976    6    5    5    2
 -2.031184728873339e-05    6    5    5    3
 -0.007539277172023661    6    5    5    4
 0.06062584872803885    6    5    5    5
 -0.0003010408721866031    6    5    6    1
 0.0003442644858740197    6    5    6    2
 0.002934236120450401    6    5    6    3
 0.005228159303295486    6    5    6    4
 0.01139471569816514    6    5    6    5
 0.1008083014570806    6    6    1    1
 -0.009428677156177845    6    6    2    1
 0.1118561952806993    6    6    2    2
 0.00133201497171888    6    6    3    1
 0.002792769851881556    6    6    3    2
 0.4986761492088104    6    6    3    3
 -0.002302410113126249    6    6    4    1
 -0.00795013564205398    6    6    4    2
 0.05629354628398548    6    6    4    3
 0.1466331204169697    6    6    4    4
 0.0007908210405123892    6    6    5    1
 0.005876103954276056    6    6    5    2
 0.003992107820793357    6    6    5    3
 0.01174482756697459    6    6    5    4
 0.09617830948113089    6    6    5    5
 0.002436532234261051    6    6    6    1
 -0.002118022817155173    6    6    6    2
 -0.01826468682180081    6    6    6    3
 -0.03340731398299594    6    6    6    4
 -0.0437863021837105    6    6    6    5
 0.4997565073976475    6    6    6    6
 -0.00158351854960887    7    1    1    1
 -0.002055350432670015    7    1    2    1
 0.001049707072138065    7    1    2    2
 -9.705765897468889e-06    7    1    3    1
 8.291472310398995e-05    7    1    3    2
 5.197328625654583e-05    7    1    3    3
 0.0007601025473468223    7    1    4    1
 -0.0006637357941622754    7    1    4    2
 -0.0001476421541189933    7    1    4    3
 0.0008082654850173729    7    1    4    4
 -0.0006949720885811995    7    1    5    1
 -0.0008215011424634821    7    1    5    2
 -1.10291504229368e-05    7    1    5    3
 0.0001382913806628631    7    1    5    4
 -0.0002980759543055229    7    1    5    5
 0.003967002027200302    7    1    6    1
 0.0002111883053050614    7    1    6    2
 -1.385386994793062e-05    7    1    6    3
 0.0003520239142368064    7    1    6    4
 -0.0002442467038539326    7    1    6    5
 -3.832233055377373e-05    7    1    6    6
 0.06904931730408126    7    1    7    1
 -0.00360154447217061    7    2    1    1
 0.0009526004131913502    7    2    2    1
 -0.003552060711179988    7    2    2    2
 -2.639147258440661e-05    7    2    3    1
 0.0001127626660770411    7    2    3    2
 0.0001545384334234932    7    2    3    3
 0.0002136973257461002    7    2    4    1
 -0.0003646480981154387    7    2    4    2
 -2.129574881055395e-05    7    2    4    3
 0.0005458869201848934    7    2    4    4
 -0.00150667423880178    7    2    5    1
 -0.0009479929723361523    7    2    5    2
 7.188130678046743e-05    7    2    5    3
 -0.0003108815666269184    7    2    5    4
 -0.000484402065342946    7    2    5    5
 0.0002111947442537555    7    2    6    1
 0.002250684174185225    7    2    6    2
 -0.0001118562745118856    7    2    6    3
 0.0001050397605102286    7    2    6    4
 -0.0004125711071428818    7    2    6    5
 9.301701888462404e-05    7    2    6    6
 0.004895274232197447    7    2    7    1
 0.04417328138721797    7    2    7    2
 -0.0002410113520742018    7    3    1    1
 -0.0001871522576529418    7    3    2    1
 3.356201102905452e-05    7    3    2    2
 -4.100684203226332e-05    7    3    3    1
 5.136185898572574e-05    7    3    3    2
 -0.001999510103876948    7    3    3    3
 -3.706012917008781e-05    7    3    4    1
 -0.0002129244691065561    7    3    4    2
 0.0001612100111864205    7    3    4    3
 0.0006339995722028114    7    3    4    4
 -1.73577758300466e-05    7    3    5    1
 0.0001226726170656864    7    3    5    2
 0.0006352848829032584    7    3    5    3
 0.0001982031062661509    7    3    5    4
 -0.0003548221585362201    7    3    5    5
 -4.973453814065204e-05    7    3    6    1
 -0.0001260016056849257    7    3    6    2
 -0.006082213265449199    7    3    6    3
 -0.0009054934700290088    7    3    6    4
 -9.453564010612899e-05    7    3    6    5
 0.0007019067841795336    7    3    6    6
 -0.001103399022214393    7    3    7    1
 -0.0002039420998838351    7    3    7    2
 0.0007056154353161536    7    3    7    3
 0.002017864807050955    7    4    1    1
 0.002246196574141122    7    4    2    1
 -0.001404881874290949    7    4    2    2
 -7.161967020394386e-05    7    4    3    1
 -0.0003840512068550372    7    4    3    2
 0.0007475802019995407    7    4    3    3
 0.0002495566166900041    7    4    4    1
 0.002907675776017081    7    4    4    2
 0.001472825892665276    7    4    4    3
 -0.008424110438844661    7    4    4    4
 0.0004962457446784591    7    4    5    1
 -0.0008549923786593028    7    4    5    2
 0.0003204122415134508    7    4    5    3
 -0.001404742621287561    7    4    5    4
 0.002938614289493409    7    4    5    5
 0.0004036312172827637    7    4    6    1
 0.0002351647647340726    7    4    6    2
 -0.001066983418877182    7    4    6    3
 -0.0003417242950650425    7    4    6    4
 -0.0002718477853244208    7    4    6    5
 0.001379750363840176    7    4    6    6
 0.006135605731128993    7    4    7    1
 -0.0001576081420236954    7    4    7    2
 -0.002365228517462244    7    4    7    3
 0.01731649531733778    7    4    7    4
 -0.00411371884400938    7    5    1    1
 -0.003300352844774038    7    5    2    1
 -0.001395575052682567    7    5    2    2
 0.0001614080057257288    7    5    3    1
 0.000168234364965856    7    5    3    2
 0.002761837123202363    7    5    3    3
 -0.0008780669974202013    7    5    4    1
 -0.001090196432792191    7    5    4    2
 0.0003653438857022573    7    5    4    3
 0.0004351053594371933    7    5    4    4
 0.0003928209085453374    7    5    5    1
 0.001921940517557102    7    5    5    2
 -0.0001490892684216184    7    5    5    3
 0.001658302562485727    7    5    5    4
 -0.007690834878442369    7    5    5    5
 -0.0002414942327524466    7    5    6    1
 -0.0002244543574331359    7    5    6    2
 -0.0001255994624546263    7    5    6    3
 -0.0003644111776815263    7    5    6    4
 0.0003043120157759017    7    5    6    5
 0.002879423373138121    7    5    6    6
 -0.00425208482641961    7    5    7    1
 -0.005423713679726374    7    5    7    2
 0.0006472111796390623    7    5    7    3
 -0.005431231399648299    7    5    7    4
 0.02301099118561639    7    5    7    5
 0.02299274309534219    7    6    1    1
 0.002369910741617552    7    6    2    1
 0.01934510257454969    7    6    2    2
 -0.0001679552909895423    7    6    3    1
 -0.0006326199793959138    7    6    3    2
 -0.0226542904661254    7    6    3    3
 0.0002086847693596065    7    6    4    1
 0.002990506571472954    7    6    4    2
 -0.005085179436917599    7    6    4    3
 0.009733392854168575    7    6    4    4
 0.001691492542760007    7    6    5    1
 0.0008738103867349961    7    6    5    2
 -0.0003067564537957158    7    6    5    3
 -0.001488517119137156    7    6    5    4
 0.02026687109810126    7    6    5    5
 -0.000102030889592484    7    6    6    1
 0.0005348442915904647    7    6    6    2
 0.001319140443834468    7    6    6    3
 0.003153290440450677    7    6    6    4
 0.004738880889846532    7    6    6    5
 -0.02235662540014347    7    6    6    6
 -0.0003931121232733381    7    6    7    1
 -0.0006891350154651704    7    6    7    2
 -0.0002172083872281156    7    6    7    3
 0.001081080570619718    7    6    7    4
 0.001596986723059494    7    6    7    5
 0.002950358842929335    7    6    7    6
 0.4971379749759319    7    7    1    1
 0.02886778999265703    7    7    2    1
 0.4524774378334644    7    7    2    2
 -0.001634942010276939    7    7    3    1
 -0.007360784352918939    7    7    3    2
 0.1002205971726193    7    7    3    3
 0.002256296433238901    7    7    4    1
 0.03739458849006239    7    7    4    2
 -0.035615953236605    7    7    4    3
 0.3346469061470653    7    7    4    4
 0.02714792270660291    7    7    5    1
 0.02016643180051492    7    7    5    2
 -0.001620460448516268    7    7    5    3
 -0.01282884697668375    7    7    5    4
 0.4488954548519238    7    7    5    5
 0.0008662110534097386    7    7    6    1
 0.006837556512049509    7    7    6    2
 0.004730926548980177    7    7    6    3
 0.02290272731938179    7    7    6    4
 0.03744056487043458    7    7    6    5
 0.104741992023018    7    7    6    6
 -0.0004299578469305395    7    7    7    1
 -0.001494805139020186    7    7    7    2
 -7.54988741638752e-05    7    7    7    3
 -7.073243263990003e-05    7    7    7    4
 -0.00315181209316361    7    7    7    5
 0.01979207553793428    7    7    7    6
 0.451436480843056    7    7    7    7
 -0.000116650169502921    8    1    1    1
 0.0002033291084638996    8    1    2    1
 7.041025551377279e-05    8    1    2    2
 0.0002300056761179078    8    1    3    1
 -0.0001415867662664209    8    1    3    2
 -0.0008247610511078025    8    1    3    3
 -0.0002993837204606162    8    1    4    1
 0.0003598735345882969    8    1    4    2
 -0.0001518912055561152    8    1    4    3
 -0.0003587718383099508    8    1    4    4
 -0.00058218100777046    8    1    5    1
 0.0005525788442317856    8    1    5    2
 5.901081896555909e-06    8    1    5    3
 -1.076664939828235e-05    8    1    5    4
 0.000103260623143194    8    1    5    5
 0.008022874380650045    8    1    6    1
 0.0005721465692363828    8    1    6    2
 -9.680922293968451e-05    8    1    6    3
 0.0005022103897979599    8    1    6    4
 -0.0003234602416789297    8    1    6    5
 -0.0009225958400438591    8    1    6    6
 -0.000569545976379845    8    1    7    1
 -0.0001674300110403659    8    1    7    2
 2.964369314401781e-07    8    1    7    3
 1.851617318283179e-05    8    1    7    4
 1.591468334034371e-05    8    1    7    5
 5.997695420200387e-05    8    1    7    6
 6.522618853833234e-05    8    1    7    7
 0.06785343260926033    8    1    8    1
 0.0005344360026217951    8    2    1    1
 0.0004159210641273872    8    2    2    1
 -0.0001556961710133421    8    2    2    2
 -0.0001117267765796329    8    2    3    1
 0.0002036981515184139    8    2    3    2
 0.000539974847344857    8    2    3    3
 0.0002439881763645024    8    2    4    1
 -0.0004316797010723283    8    2    4    2
 0.0001560714440933197    8    2    4    3
 0.00030741516861144    8    2    4    4
 0.0005706466786231465    8    2    5    1
 -0.0007851198668431389    8    2    5    2
 5.374439105894203e-05    8    2    5    3
 2.820732267360423e-05    8    2    5    4
 0.000288356297806636    8    2    5    5
 0.0005452308851703787    8    2    6    1
 0.004953732672745848    8    2    6    2
 -0.0002126982379391888    8    2    6    3
 0.0003095053068195726    8    2    6    4
 -0.00057971663186752    8    2    6    5
 0.0005555185645108973    8    2    6    6
 -0.0001691980439854694    8    2    7    1
 -0.0001876368691254765    8    2    7    2
 2.27099344896936e-05    8    2    7    3
 -0.000108704245685559    8    2    7    4
 6.372843045258625e-05    8    2    7    5
 -1.343890253948727e-05    8    2    7    6
 0.0001604846882600542    8    2    7    7
 0.00472490900645125    8    2    8    1
 0.04351628685275118    8    2    8    2
 0.0005202266610090573    8    3    1    1
 3.638021822248728e-05    8    3    2    1
 0.000302328014407781    8    3    2    2
 -9.248480929836882e-05    8    3    3    1
 -2.089332610062504e-05    8    3    3    2
 -0.003713357321218585    8    3    3    3
 -4.599218667251411e-05    8    3    4    1
 0.0004037198796580136    8    3    4    2
 0.0006910061795999779    8    3    4    3
 -0.0006379127451423902    8    3    4    4
 0.000118179433168798    8    3    5    1
 0.0001263615576033988    8    3    5    2
 0.00133647676630888    8    3    5    3
 8.424229564285966e-05    8    3    5    4
 0.0003697428129759123    8    3    5    5
 -8.846771511687486e-05    8    3    6    1
 -0.0001885845754533079    8    3    6    2
 -0.01231267771228937    8    3    6    3
 -0.002016820270093274    8    3    6    4
 -0.0001068694309554453    8    3    6    5
 0.001555075360470393    8    3    6    6
 -5.501990067845415e-06    8    3    7    1
 1.452883210843512e-05    8    3    7    2
 0.0006946934319790682    8    3    7    3
 0.0001187439977908499    8    3    7    4
 1.790315026637708e-06    8    3    7    5
 -7.723921629511308e-05    8    3    7    6
 0.0001884842963992092    8    3    7    7
 -0.001103685453828201    8    3    8    1
 -0.0001581961034051819    8    3    8    2
 0.001770266098194227    8    3    8    3
 -0.00282181946262416    8    4    1    1
 0.000686117765411991    8    4    2    1
 -0.003508952015329982    8    4    2    2
 -1.684880556516646e-05    8    4    3    1
 1.927796855741455e-05    8    4    3    2
 0.002764174050462067    8    4    3    3
 0.0001187103520091141    8    4    4    1
 0.0002807792002425922    8    4    4    2
 0.001088993541019801    8    4    4    3
 -0.003850416244210629    8    4    4    4
 -0.0001159993141084578    8    4    5    1
 -0.0003406356734870956    8    4    5    2
 0.0003120079676495467    8    4    5    3
 -0.0005283235618339341    8    4    5    4
 -0.0020022506640295    8    4    5    5
 0.0007388299526834223    8    4    6    1
 3.951121539592028e-05    8    4    6    2
 -0.002115524451918365    8    4    6    3
 0.0005310122620681419    8    4    6    4
 -0.001350346265382081    8    4    6    5
 0.003613265552375195    8    4    6    6
 2.568337356394522e-06    8    4    7    1
 -9.023702259461852e-05    8    4    7    2
 9.792936899761291e-05    8    4    7    3
 9.271027341216237e-05    8    4    7    4
 8.403612376459659e-05    8    4    7    5
 -0.0003389767121464325    8    4    7    6
 -0.002676458582144942    8    4    7    7
 0.006241169457169141    8    4    8    1
 -0.0003508984636778089    8    4    8    2
 -0.002207380173303522    8    4    8    3
 0.01727121915932523    8    4    8    4
 -0.003991185776974456    8    5    1    1
 0.001002970074817235    8    5    2    1
 -0.004833019261487712    8    5    2    2
 -1.180708505224884e-05    8    5    3    1
 7.94005966970387e-05    8    5    3    2
 0.004755714561253597    8    5    3    3
 0.0002862474086902648    8    5    4    1
 -0.0001238910189032728    8    5    4    2
 0.001299525853751605    8    5    4    3
 -0.003650038029461842    8    5    4    4
 -9.683653320332353e-05    8    5    5    1
 -0.0007071498605849469    8    5    5    2
 0.0001763602155357611    8    5    5    3
 -0.0001809683968760695    8    5    5    4
 -0.003088921168980383    8    5    5    5
 -0.0003586075109809404    8    5    6    1
 -0.0007285445411662187    8    5    6    2
 -0.0002451695554744193    8    5    6    3
 -0.001507976695122336    8    5    6    4
 0.001749738496860745    8    5    6    5
 0.005194000156133238    8    5    6    6
 1.219107424295211e-05    8    5    7    1
 9.698657852306877e-05    8    5    7    2
 3.763019567664825e-06    8    5    7    3
 0.0001006612502019688    8    5    7    4
 -0.0001631182301706739    8    5    7    5
 -0.0005068450380347599    8    5    7    6
 -0.003589526465553195    8    5    7    7
 -0.004167636472060626    8    5    8    1
 -0.005328337726556145    8    5    8    2
 0.000643171506647574    8    5    8    3
 -0.005182324483624909    8    5    8    4
 0.02259214113403435    8    5    8    5
 0.04685771752023925    8    6    1    1
 0.004761559562096629    8    6    2    1
 0.0397758429357416    8    6    2    2
 -0.0003469853038381799    8    6    3    1
 -0.001257470207640227    8    6    3    2
 -0.04592898431112629    8    6    3    3
 0.0004885058801695509    8    6    4    1
 0.005843517214392732    8    6    4    2
 -0.01042209203853168    8    6    4    3
 0.02072369680493198    8    6    4    4
 0.003278392629361023    8    6    5    1
 0.001693934371375997    8    6    5    2
 -0.0005766394362248664    8    6    5    3
 -0.003107549171555156    8    6    5    4
 0.04175905277240945    8    6    5    5
 -0.0002007232755012322    8    6    6    1
 0.001035976588206733    8    6    6    2
 0.002344042289600095    8    6    6    3
 0.006422866409029608    8    6    6    4
 0.009663523129594166    8    6    6    5
 -0.04523769547345115    8    6    6    6
 -3.283633785160858e-05    8    6    7    1
 -0.0002499688525206293    8    6    7    2
 -8.11722611751681e-05    8    6    7    3
 -9.685360964472038e-05    8    6    7    4
 -0.0006688148538220762    8    6    7    5
 0.004802217863499827    8    6    7    6
 0.03720984653874328    8    6    7    7
 -0.0001925609051692466    8    6    8    1
 -0.000658309991233699    8    6    8    2
 -0.0002829819127906457    8    6    8    3
 0.0004275734768062855    8    6    8    4
 0.0009112948819792657    8    6    8    5
 0.01035967500192792    8    6    8    6
 -0.002968216896377249    8    7    1    1
 -0.0007516248418945359    8    7    2    1
 -0.001988412924938059    8    7    2    2
 3.379424317725875e-05    8    7    3    1
 0.0001038443097078903    8    7    3    2
 0.002680781095192334    8    7    3    3
 -9.936721743959107e-05    8    7    4    1
 -0.0005731357826399327    8    7    4    2
 0.0005034828207635294    8    7    4    3
 -0.0005095372173253068    8    7    4    4
 -0.000267331115430309    8    7    5    1
 7.394466383380896e-05    8    7    5    2
 7.648220994588588e-06    8    7    5    3
 0.0003579783525153642    8    7    5    4
 -0.002854652085744288    8    7    5    5
 -2.223766515810272e-06    8    7    6    1
 -5.020717748778884e-05    8    7    6    2
 -0.0001255994098379349    8    7    6    3
 -0.0002882340102554271    8    7    6    4
 -0.000604592690951218    8    7    6    5
 0.002818396426073196    8    7    6    6
 7.475860181870939e-05    8    7    7    1
 -1.777700575772599e-05    8    7    7    2
 5.883187972428534e-05    8    7    7    3
 -0.0001216565872141618    8    7    7    4
 -9.967075335783004e-05    8    7    7    5
 0.001406217028381557    8    7    7    6
 -0.002402800465672396    8    7    7    7
 -1.402372469440358e-05    8    7    8    1
 0.0001723460549950869    8    7    8    2
 3.179260634342939e-05    8    7    8    3
 -5.200350200469412e-05    8    7    8    4
 -0.0001063681855470997    8    7    8    5
 0.0002209014065002786    8    7    8    6
 0.01463836592023452    8    7    8    7
 0.4912160166707368    8    8    1    1
 0.02790222917674225    8    8    2    1
 0.4478688501140873    8    8    2    2
 -0.001585777569115972    8    8    3    1
 -0.007173429320581258    8    8    3    2
 0.1043069792018991    8    8    3    3
 0.002169728197358622    8    8    4    1
 0.03638417861437007    8    8    4    2
 -0.03471308451167695    8    8    4    3
 0.3328397430724336    8    8    4    4
 0.02671147252368664    8    8    5    1
 0.02007033894118024    8    8    5    2
 -0.001605363732160136    8    8    5    3
 -0.01230105740945738    8    8    5    4
 0.4434202074651364    8    8    5    5
 0.0009157087524037106    8    8    6    1
 0.00665350366360661    8    8    6    2
 0.004601077546283128    8    8    6    3
 0.02234796853622699    8    8    6    4
 0.03641698858854018    8    8    6    5
 0.1090186807833494    8    8    6    6
 -0.0002964296728356702    8    8    7    1
 -0.001867143287613199    8    8    7    2
 -0.0001249680623683096    8    8    7    3
 9.262251541951663e-05    8    8    7    4
 -0.002748182087613645    8    8    7    5
 0.0176704992714811    8    8    7    6
 0.4173794512977184    8    8    7    7
 0.0003238520585561167    8    8    8    1
 -4.321165223209128e-05    8    8    8    2
 0.0002794095531983345    8    8    8    3
 -0.002736877282556605    8    8    8    4
 -0.003780730143643585    8    8    8    5
 0.03957163900638865    8    8    8    6
 -0.002339873749253225    8    8    8    7
 0.4417775751503178    8    8    8    8
 -5.425767649803824e-05    9    1    1    1
 -6.969663199769466e-05    9    1    2    1
 2.004180020003597e-05    9    1    2    2
 3.261231874868388e-06    9    1    3    1
 9.833263069045462e-07    9    1    3    2
 1.449784331373547e-05    9    1    3    3
 -1.988787999412081e-05    9    1    4    1
 -5.930971783410346e-06    9    1    4    2
 2.128085198045231e-06    9    1    4    3
 1.239180352575021e-05    9    1    4    4
 -4.17162115169084e-05    9    1    5    1
 -2.233599764272326e-05    9    1    5    2
 1.70964107503457e-06    9    1    5    3
 3.556312604526887e-06    9    1    5    4
 -3.262155831628119e-05    9    1    5    5
 -1.541843199896484e-05    9    1    6    1
 -1.762961279407885e-05    9    1    6    2
 -1.387007202952879e-05    9    1    6    3
 -1.584244856709302e-06    9    1    6    4
 -2.14198581797264e-06    9    1    6    5
 9.855819580915748e-06    9    1    6    6
 -0.0004796350832602529    9    1    7    1
 -0.0008832307631752397    9    1    7    2
 5.840628648168676e-06    9    1    7    3
 -1.925263095344095e-05    9    1    7    4
 8.484435009250551e-05    9    1    7    5
 8.457768788176251e-06    9    1    7    6
 -2.462908648844967e-05    9    1    7    7
 0.0001757628565679262    9    1    8    1
 0.0002955928210759374    9    1    8    2
 -5.757405917515603e-07    9    1    8    3
 9.210197502173417e-06    9    1    8    4
 -2.982282661374319e-05    9    1    8    5
 -6.514168849097802e-06    9    1    8    6
 4.283348087977163e-06    9    1    8    7
 -1.986729792272386e-05    9    1    8    8
 2.806612754045167e-05    9    1    9    1