 &FCI NORB=   4,NELEC= 6,MS2=0,
  ORBSYM=1,1,1,1,
  ISYM=1,
 &END
 0.4105103116886371    1    1    1    1
 -0.02547325531467087    2    1    1    1
 0.2474529774720053    2    1    2    1
 0.4073799575167325    2    2    1    1
 0.02741907378279462    2    2    2    1
 0.4164681165505604    2    2    2    2
 -0.02108614351625306    3    1    1    1
 0.003224289640862678    3    1    2    1
 -0.02155265638806681    3    1    2    2
 0.006028882011482006    3    1    3    1
 0.001498153218919145    3    2    1    1
 -0.02605246486540825    3    2    2    1
 -0.004189954570151961    3    2    2    2
 0.0006352550098289484    3    2    3    1
 0.00380559209380286    3    2    3    2
 0.1988614030716521    3    3    1    1
 0.02682551901993824    3    3    2    1
 0.19955532883473    3    3    2    2
 0.03286362028161949    3    3    3    1
 0.002787049539639361    3    3    3    2
 0.5776154146585517    3    3    3    3
 0.002649372064666248    4    1    1    1
 -0.005389006738908434    4    1    2    1
 0.001958080497977864    4    1    2    2
 -0.001317030469661429    4    1    3    1
 0.0007063199988413779    4    1    3    2
 -0.004270456286538795    4    1    3    3
 0.001111038429985718    4    1    4    1
 -0.005329643505520696    4    2    1    1
 0.003956358004687125    4    2    2    1
 -0.004665789775410443    4    2    2    2
 0.0006945032886745476    4    2    3    1
 -0.0009699334277694186    4    2    3    2
 -0.0003536252318943488    4    2    3    3
 -0.0005305977765696559    4    2    4    1
 0.0009153738156635965    4    2    4    2
 -0.01033072782259285    4    3    1    1
 0.006885158818925839    4    3    2    1
 -0.008673533168994739    4    3    2    2
 0.002047119550771449    4    3    3    1
 0.0001536206411348272    4    3    3    2
 0.033380175474409    4    3    3    3
 0.002024907284692214    4    3    4    1
 2.499441834062557e-05    4    3    4    2
 0.05365240547480554    4    3    4    3
 0.167668913476611    4    4    1    1
 0.01415184849066306    4    4    2    1
 0.1676716396465115    4    4    2    2
 0.02046464222998784    4    4    3    1
 0.001595086361127936    4    4    3    2
 0.4190057711321174    4    4    3    3
 -0.0006851255837777015    4    4    4    1
 1.292479193764143e-05    4    4    4    2
 0.07471454626600371    4    4    4    3
 0.4327042813410991    4    4    4    4
 17.92928523022211    1    1  0  0
 0.1625735428918738    2    1  0  0
 17.59814196978284    2    2  0  0
 -0.5055154242117155    3    1  0  0
 -0.04499308133624602    3    2  0  0
 10.51538223253954    3    3  0  0
 -0.08000681174718371    4    1  0  0
 -0.09168447993161816    4    2  0  0
 -1.226439699763936    4    3  0  0
 7.8665059099716    4    4  0  0
 -1533.974187659243  0  0  0  0
