 &FCI NORB=  21,NELEC=32,MS2=0,
  ORBSYM=1,1,1,1,1,1,1,1,1,1,1,1,1,1,1,1,1,1,1,1,1,
  ISYM=1,
 &END
 0.792442323749887    1    1    1    1
 -0.01034509081904121    2    1    1    1
 0.0003565277829916812    2    1    2    1
 0.1524541755441362    2    2    1    1
 0.007880913174100362    2    2    2    1
 0.5410547754410658    2    2    2    2
 0.00088887490910592    3    1    1    1
 -3.397212146928457e-05    3    1    2    1
 -0.0005798210479850653    3    1    2    2
 0.0001300857896804852    3    1    3    1
 0.001371479265528498    3    2    1    1
 -0.0004500485218616266    3    2    2    1
 -0.007034825636585779    3    2    2    2
 0.0047633743008774    3    2    3    1
 0.2293036899978806    3    2    3    2
 0.1501566901592606    3    3    1    1
 0.007610922102068318    3    3    2    1
 0.5287244840601636    3    3    2    2
 -0.001105796725364615    3    3    3    1
 -0.02644258892916773    3    3    3    2
 0.5343763902031851    3    3    3    3
 0.001879886000277767    4    1    1    1
 -3.26936803269881e-05    4    1    2    1
 -0.0002019710739408265    4    1    2    2
 -1.015887127517831e-05    4    1    3    1
 -0.0004120767073393545    4    1    3    2
 -2.27095310328866e-05    4    1    3    3
 3.049274733704489e-05    4    1    4    1
 -0.001259814574289177    4    2    1    1
 0.000314406774107948    4    2    2    1
 0.01898088876165837    4    2    2    2
 -0.0002740408755169595    4    2    3    1
 -0.005175994430024398    4    2    3    2
 0.02723843168883721    4    2    3    3
 0.0004552973611604907    4    2    4    1
 0.01795613071713041    4    2    4    2
 -0.000422834475890537    4    3    1    1
 -0.0003670903345593517    4    3    2    1
 -0.01087800973516214    4    3    2    2
 0.0006811197959062047    4    3    3    1
 0.03859149621431841    4    3    3    2
 -0.009097381910622024    4    3    3    3
 1.672035866402471e-05    4    3    4    1
 0.003890218620176998    4    3    4    2
 0.01433154044157704    4    3    4    3
 0.1440873108283424    4    4    1    1
 0.002627388661172056    4    4    2    1
 0.2762741167631411    4    4    2    2
 -2.837579223133324e-06    4    4    3    1
 0.003794293247337641    4    4    3    2
 0.2653046036254041    4    4    3    3
 -0.001863364530546398    4    4    4    1
 -0.03698273314381777    4    4    4    2
 -0.001120275185309029    4    4    4    3
 0.4863172870230816    4    4    4    4
 -0.003006290910156801    5    1    1    1
 9.770345590403976e-05    5    1    2    1
 0.002262215610904993    5    1    2    2
 2.712434890147521e-05    5    1    3    1
 0.001221566075579584    5    1    3    2
 0.001728683256173341    5    1    3    3
 -2.008324437471223e-05    5    1    4    1
 -0.00027515681653581    5    1    4    2
 -0.000172180577843794    5    1    4    3
 0.0006975151365616939    5    1    4    4
 6.437370809029956e-05    5    1    5    1
 0.003992284572743986    5    2    1    1
 0.001159163601267627    5    2    2    1
 0.04389948232233635    5    2    2    2
 0.0006207620546927767    5    2    3    1
 0.01271834892089912    5    2    3    2
 0.0167399173496222    5    2    3    3
 -0.0004366056414393171    5    2    4    1
 -0.02178585175339328    5    2    4    2
 -0.01673709222218964    5    2    4    3
 0.02069472228529065    5    2    4    4
 0.001403948295235536    5    2    5    1
 0.06983129320622052    5    2    5    2
 0.00196756596979793    5    3    1    1
 0.0009123698217858699    5    3    2    1
 0.02699592729970766    5    3    2    2
 -0.0003932891280642361    5    3    3    1
 -0.04036705508261186    5    3    3    2
 0.01379737501190507    5    3    3    3
 -0.0003285310523878163    5    3    4    1
 -0.01932707276268875    5    3    4    2
 -0.02649008169388105    5    3    4    3
 0.01824627216826721    5    3    4    4
 0.0009069027001664398    5    3    5    1
 0.05733959626849799    5    3    5    2
 0.07033959026909296    5    3    5    3
 -0.003715871762871537    5    4    1    1
 -0.00129455313113349    5    4    2    1
 -0.07581573203262501    5    4    2    2
 -0.0007260922145295463    5    4    3    1
 -0.04442200874623697    5    4    3    2
 -0.07649318344064229    5    4    3    3
 -0.0003107802785318366    5    4    4    1
 -0.01602066997652163    5    4    4    2
 -0.007869664914617618    5    4    4    3
 0.06754623317173777    5    4    4    4
 -0.0005555134637722325    5    4    5    1
 0.001675193135805275    5    4    5    2
 0.0178793759854784    5    4    5    3
 0.07045560384240097    5    4    5    4
 0.1474225059295574    5    5    1    1
 0.005573230232863075    5    5    2    1
 0.4417880868673479    5    5    2    2
 0.002358191418366448    5    5    3    1
 0.1390924121371469    5    5    3    2
 0.4303813642842689    5    5    3    3
 -0.0006384027398425485    5    5    4    1
 0.01093298192471786    5    5    4    2
 0.02334374508003265    5    5    4    3
 0.3029448948838986    5    5    4    4
 0.002273997696894906    5    5    5    1
 0.01650676975539176    5    5    5    2
 -0.03023644150813062    5    5    5    3
 -0.0845199831143455    5    5    5    4
 0.5131688223491981    5    5    5    5
 0.002285316588497251    6    1    1    1
 -6.930445405013588e-05    6    1    2    1
 -0.001731446657237462    6    1    2    2
 2.845275000449074e-05    6    1    3    1
 0.001241270489118395    6    1    3    2
 -0.001728978889320436    6    1    3    3
 5.818787310868034e-06    6    1    4    1
 -0.0002267147150558215    6    1    4    2
 8.049737466288142e-05    6    1    4    3
 -0.0004249216241264257    6    1    4    4
 -1.325615613388467e-05    6    1    5    1
 0.0001118657412042365    6    1    5    2
 8.634322100346012e-05    6    1    5    3
 7.938484612978731e-05    6    1    5    4
 -0.0005126939942533399    6    1    5    5
 4.92523559065245e-05    6    1    6    1
 -0.003326584062960975    6    2    1    1
 -0.0009001271209321433    6    2    2    1
 -0.03937708872658707    6    2    2    2
 0.0006910660922827745    6    2    3    1
 0.02275680994709265    6    2    3    2
 -0.02886246928708966    6    2    3    3
 -0.0001369151461459157    6    2    4    1
 -0.003904020132193931    6    2    4    2
 -0.004259714935559399    6    2    4    3
 -0.008573674628283358    6    2    4    4
 7.928063479986235e-05    6    2    5    1
 -0.001017886284338692    6    2    5    2
 0.01301703488096978    6    2    5    3
 0.001783431241465324    6    2    5    4
 -0.01191002116139763    6    2    5    5
 0.0008336518350295311    6    2    6    1
 0.05199991753721755    6    2    6    2
 0.003689317090337847    6    3    1    1
 0.0009668100255907086    6    3    2    1
 0.04030470457190676    6    3    2    2
 -4.916806960740192e-05    6    3    3    1
 0.01187847559084938    6    3    3    2
 0.029877453042507    6    3    3    3
 -0.0002695668017557553    6    3    4    1
 -0.01172608235305903    6    3    4    2
 -0.0005342609089230271    6    3    4    3
 0.02499774015307742    6    3    4    4
 0.0006626573390338631    6    3    5    1
 0.02878056006280425    6    3    5    2
 0.00809765104371156    6    3    5    3
 -0.002545445098667395    6    3    5    4
 0.03099550359216591    6    3    5    5
 -0.0002406202314150538    6    3    6    1
 -0.02248329128688529    6    3    6    2
 0.06437345673784799    6    3    6    3
 -0.0006960953839249656    6    4    1    1
 -0.0001826140035278562    6    4    2    1
 -0.008136487041142296    6    4    2    2
 -0.0005120863419490248    6    4    3    1
 -0.02886503399316204    6    4    3    2
 -0.003344670076994058    6    4    3    3
 3.870108303462554e-05    6    4    4    1
 0.0006629959152929239    6    4    4    2
 -0.005296799541485746    6    4    4    3
 -0.004534172287171055    6    4    4    4
 -0.0002056395748186411    6    4    5    1
 -0.00391219412736788    6    4    5    2
 0.007878833238938135    6    4    5    3
 0.007110489917508678    6    4    5    4
 -0.02547198926338874    6    4    5    5
 -3.3437591774869e-05    6    4    6    1
 0.008429463008065729    6    4    6    2
 -0.01290852762341695    6    4    6    3
 0.009666382284364101    6    4    6    4
 0.001350502970645973    6    5    1    1
 0.0001932630803171687    6    5    2    1
 0.01003214752053416    6    5    2    2
 0.001198942981329349    6    5    3    1
 0.06334811245720127    6    5    3    2
 0.004738143660306518    6    5    3    3
 -0.0001584340541586009    6    5    4    1
 -0.002757893880033489    6    5    4    2
 0.01235904291404674    6    5    4    3
 0.009029951368245056    6    5    4    4
 0.0003586622527854601    6    5    5    1
 0.004479275978665244    6    5    5    2
 -0.01523535595440885    6    5    5    3
 -0.01691390465973404    6    5    5    4
 0.0540075209054647    6    5    5    5
 0.0002549878123526191    6    5    6    1
 -0.007121650598417647    6    5    6    2
 0.02011742159090999    6    5    6    3
 -0.01583619606798334    6    5    6    4
 0.0348291263964671    6    5    6    5
 0.143499998248433    6    6    1    1
 0.005748199700584725    6    6    2    1
 0.4430475509316526    6    6    2    2
 -0.002069144439711142    6    6    3    1
 -0.09524895340809451    6    6    3    2
 0.460838527251292    6    6    3    3
 4.217047380535325e-05    6    6    4    1
 0.025660475845962    6    6    4    2
 -0.028242093892567    6    6    4    3
 0.2394221931038541    6    6    4    4
 0.001023238264586181    6    6    5    1
 0.004478998100321352    6    6    5    2
 0.04047550714197842    6    6    5    3
 -0.04901324283458707    6    6    5    4
 0.3266619494067156    6    6    5    5
 -0.001392746321002263    6    6    6    1
 0.02326018358563881    6    6    6    2
 -0.0353054100979729    6    6    6    3
 0.02644525569086437    6    6    6    4
 -0.04727862913615742    6    6    6    5
 0.555882321558535    6    6    6    6
 0.0001050005352828691    7    1    1    1
 2.116882579811631e-05    7    1    2    1
 0.001005379301054881    7    1    2    2
 2.205307456088978e-05    7    1    3    1
 0.001173084176002059    7    1    3    2
 0.0007065259755940274    7    1    3    3
 7.144231660764408e-06    7    1    4    1
 0.0002472429417610562    7    1    4    2
 8.097338605287589e-05    7    1    4    3
 -0.0005487537037750762    7    1    4    4
 1.448605296934971e-05    7    1    5    1
 0.0003078857596790401    7    1    5    2
 -6.32839241838887e-05    7    1    5    3
 -0.0005488091386491553    7    1    5    4
 0.001185457065312129    7    1    5    5
 8.84594026031835e-07    7    1    6    1
 -4.093253053069197e-05    7    1    6    2
 -0.000216369242479504    7    1    6    3
 -0.00013119610908539    7    1    6    4
 0.0001558447959361719    7    1    6    5
 0.0003167574352245484    7    1    6    6
 3.808208404417588e-05    7    1    7    1
 0.0006573191286781925    7    2    1    1
 0.0005242946126957733    7    2    2    1
 0.02095196530833562    7    2    2    2
 0.0005354943282155841    7    2    3    1
 0.01610058233646519    7    2    3    2
 0.006001635580624045    7    2    3    3
 0.0002530397337799526    7    2    4    1
 0.008952767617414502    7    2    4    2
 -0.003035485555216734    7    2    4    3
 -0.01791348778533573    7    2    4    4
 0.0003293657780210017    7    2    5    1
 0.0128791381511198    7    2    5    2
 0.005971681914395288    7    2    5    3
 -0.006014810781973379    7    2    5    4
 0.01101826949484582    7    2    5    5
 -5.829436553040409e-05    7    2    6    1
 -0.007681111500234834    7    2    6    2
 -0.02386818613914221    7    2    6    3
 -0.001207904385313771    7    2    6    4
 -0.002235964677589296    7    2    6    5
 0.01303472386719839    7    2    6    6
 0.0009096605187109332    7    2    7    1
 0.05059678710809153    7    2    7    2
 0.002338038789999644    7    3    1    1
 0.0008261377730322365    7    3    2    1
 0.03085791600643153    7    3    2    2
 -0.0002936345280762638    7    3    3    1
 -0.02351573095408182    7    3    3    2
 0.02464645645691007    7    3    3    3
 -9.162164863387931e-05    7    3    4    1
 -0.005922926079138512    7    3    4    2
 -0.001469400838088489    7    3    4    3
 0.01543708426562296    7    3    4    4
 0.0001490476355649655    7    3    5    1
 0.01396356739955682    7    3    5    2
 0.01670040585765059    7    3    5    3
 0.005139937936236683    7    3    5    4
 -0.0004200010872748329    7    3    5    5
 -0.000502124822799644    7    3    6    1
 -0.02862623250881424    7    3    6    2
 0.003641052675587911    7    3    6    3
 -0.001597493900848419    7    3    6    4
 0.001176540256655551    7    3    6    5
 -0.002059145823188504    7    3    6    6
 -0.0002078420662565215    7    3    7    1
 -0.001343341225393715    7    3    7    2
 0.0493896532870151    7    3    7    3
 0.004241414732601359    7    4    1    1
 0.0007753327492930687    7    4    2    1
 0.0421753478619131    7    4    2    2
 -0.0003314843501451973    7    4    3    1
 -0.01763858340796357    7    4    3    2
 0.03944661849364711    7    4    3    3
 -0.0001518535918608242    7    4    4    1
 -0.0005196996026506403    7    4    4    2
 -0.004767469160478203    7    4    4    3
 -0.01142605490488627    7    4    4    4
 0.0001207343071223019    7    4    5    1
 0.008457660046634554    7    4    5    2
 0.009643925249007632    7    4    5    3
 -0.0250658026273683    7    4    5    4
 0.009455648248831964    7    4    5    5
 -0.0002113786633266656    7    4    6    1
 -0.004927573136916803    7    4    6    2
 -0.001128472414447251    7    4    6    3
 0.004034296876431031    7    4    6    4
 -0.002672104994362123    7    4    6    5
 0.04478490642355951    7    4    6    6
 1.723172490175357e-05    7    4    7    1
 0.002370929742478325    7    4    7    2
 0.006645622084650652    7    4    7    3
 0.03515001197213056    7    4    7    4
 0.00267293345219747    7    5    1    1
 0.0009253407702806988    7    5    2    1
 0.05014366443542985    7    5    2    2
 0.0004542380084221033    7    5    3    1
 0.02872605957120686    7    5    3    2
 0.04676109634187691    7    5    3    3
 5.383137410435888e-05    7    5    4    1
 0.007120979890959949    7    5    4    2
 0.005863089734542873    7    5    4    3
 -0.02549327510528614    7    5    4    4
 0.0005078041658917082    7    5    5    1
 0.004955382524609161    7    5    5    2
 -0.008553503676001745    7    5    5    3
 -0.03218902959032652    7    5    5    4
 0.05294182692324282    7    5    5    5
 -0.0001607092208973987    7    5    6    1
 -0.006086356948279407    7    5    6    2
 0.01177048500402248    7    5    6    3
 -0.003497035290762316    7    5    6    4
 0.004536723347606003    7    5    6    5
 0.01547155381980198    7    5    6    6
 0.0004257057734385378    7    5    7    1
 0.001199552819908137    7    5    7    2
 0.0003253481637019917    7    5    7    3
 0.008203094192558207    7    5    7    4
 0.03238131909240516    7    5    7    5
 -0.001887639682031078    7    6    1    1
 -9.382952525581034e-05    7    6    2    1
 -0.01270096904935919    7    6    2    2
 -0.001733489521646293    7    6    3    1
 -0.09430286113198953    7    6    3    2
 -0.003223513606506738    7    6    3    3
 0.0001325106246312211    7    6    4    1
 0.00137314737907127    7    6    4    2
 -0.01722960526314303    7    6    4    3
 -0.001661234296534373    7    6    4    4
 -0.000564136918108644    7    6    5    1
 -0.007216670229481794    7    6    5    2
 0.02201468169627891    7    6    5    3
 0.01960852235340472    7    6    5    4
 -0.06444577716699434    7    6    5    5
 -0.0003406242640079892    7    6    6    1
 0.001909008562639255    7    6    6    2
 -0.03154509409590333    7    6    6    3
 0.01984640093507667    7    6    6    4
 -0.03328495103341399    7    6    6    5
 0.06043516586082577    7    6    6    6
 -0.000420520961231428    7    6    7    1
 0.007040036982120919    7    6    7    2
 0.00960430439293905    7    6    7    3
 0.01198696339899898    7    6    7    4
 -0.020639857092533    7    6    7    5
 0.07179717941259045    7    6    7    6
 0.1461144906463227    7    7    1    1
 0.005433109702107114    7    7    2    1
 0.4264837656231453    7    7    2    2
 -0.0004895190728303328    7    7    3    1
 -0.006027906534239708    7    7    3    2
 0.4243139478746259    7    7    3    3
 -0.0005195245030904308    7    7    4    1
 0.005585415947300415    7    7    4    2
 -0.005913366220906949    7    7    4    3
 0.3087846834647552    7    7    4    4
 0.001509196071346023    7    7    5    1
 0.02124749933916882    7    7    5    2
 0.01690577202832575    7    7    5    3
 -0.03366966048475338    7    7    5    4
 0.3733476803727389    7    7    5    5
 -0.001072032479235098    7    7    6    1
 -0.007707088356490827    7    7    6    2
 0.02419943550862111    7    7    6    3
 0.002003208501271479    7    7    6    4
 -0.002499681699585227    7    7    6    5
 0.393199109026622    7    7    6    6
 0.0003902636010832874    7    7    7    1
 -0.001197914159450216    7    7    7    2
 0.006104869034819696    7    7    7    3
 0.02496291192876291    7    7    7    4
 0.02648512763677139    7    7    7    5
 -0.003447525307263985    7    7    7    6
 0.3981366914101139    7    7    7    7
 -0.000504480398275393    8    1    1    1
 6.208871253210728e-05    8    1    2    1
 0.002562603347335078    8    1    2    2
 1.545442212574124e-05    8    1    3    1
 0.0005009513126896136    8    1    3    2
 0.002857433550606622    8    1    3    3
 -2.830318551988201e-05    8    1    4    1
 0.0002412877261105309    8    1    4    2
 5.946232760392853e-05    8    1    4    3
 0.001533883651560175    8    1    4    4
 2.326840746768623e-07    8    1    5    1
 -0.0002406941577559168    8    1    5    2
 -0.0001214451304702917    8    1    5    3
 -0.0003818994837614327    8    1    5    4
 0.002535206000239746    8    1    5    5
 -8.427281317527365e-05    8    1    6    1
 0.000376807425281408    8    1    6    2
 -2.118313123719269e-05    8    1    6    3
 -7.008181893237869e-06    8    1    6    4
 9.250195840066741e-05    8    1    6    5
 0.002527267737014748    8    1    6    6
 3.433634881673406e-05    8    1    7    1
 -9.604434747573729e-05    8    1    7    2
 -0.0002261193337653068    8    1    7    3
 -1.84195541719444e-06    8    1    7    4
 0.0002536981623786178    8    1    7    5
 -0.0002268857301480114    8    1    7    6
 0.002293174522256845    8    1    7    7
 0.002858295421424869    8    1    8    1
 0.01313396538877621    8    2    1    1
 0.0001830365688588057    8    2    2    1
 -0.007657188044816285    8    2    2    2
 0.0001467328772863082    8    2    3    1
 0.001870620458893487    8    2    3    2
 -0.006337078648588922    8    2    3    3
 0.0002005317878273744    8    2    4    1
 -0.001257857453955897    8    2    4    2
 0.000360884963295757    8    2    4    3
 0.001183176867273333    8    2    4    4
 -0.0003738456969689256    8    2    5    1
 -0.002305058526910393    8    2    5    2
 -0.000289135962391122    8    2    5    3
 0.0009840099038716278    8    2    5    4
 -0.003461661929249366    8    2    5    5
 0.000412751219865249    8    2    6    1
 0.0008550949509765043    8    2    6    2
 -0.003260676076966057    8    2    6    3
 0.0004890862486443794    8    2    6    4
 -0.0002721956077644395    8    2    6    5
 -0.003372193244030825    8    2    6    6
 -3.644027125574703e-05    8    2    7    1
 0.0009382082181949988    8    2    7    2
 0.00138767117421421    8    2    7    3
 0.000102181424009997    8    2    7    4
 -0.00103770906041879    8    2    7    5
 0.001370094123104109    8    2    7    6
 -0.004323372825797925    8    2    7    7
 9.339263700801348e-05    8    2    8    1
 0.04139270557967077    8    2    8    2
 0.002577812655315201    8    3    1    1
 0.0001310478366304594    8    3    2    1
 0.003703363307250709    8    3    2    2
 0.000639803803559797    8    3    3    1
 -0.002668374380171668    8    3    3    2
 0.003161483251114834    8    3    3    3
 1.264631971230742e-05    8    3    4    1
 5.383351931857431e-05    8    3    4    2
 -0.0005423058330663475    8    3    4    3
 0.001178558709995384    8    3    4    4
 -3.177505740317817e-05    8    3    5    1
 0.0006131480682396591    8    3    5    2
 -0.000899038063195744    8    3    5    3
 -0.0002594747005684974    8    3    5    4
 0.001032826307128195    8    3    5    5
 -0.0001147455942051912    8    3    6    1
 -0.003701132751676968    8    3    6    2
 0.001403834557414775    8    3    6    3
 -0.0008239329672876153    8    3    6    4
 0.000618879874502192    8    3    6    5
 -0.001309894918035879    8    3    6    6
 -0.0001381390777101246    8    3    7    1
 0.001642363320816001    8    3    7    2
 0.002295116343208033    8    3    7    3
 0.0005124967832210657    8    3    7    4
 -4.957027503880442e-05    8    3    7    5
 0.0008228191078181901    8    3    7    6
 0.0002612831611533432    8    3    7    7
 0.0001161914483109559    8    3    8    1
 0.01262808648092413    8    3    8    2
 0.03206835960916413    8    3    8    3
 -0.004999982182682757    8    4    1    1
 6.745978298560145e-05    8    4    2    1
 -0.006732337858597471    8    4    2    2
 1.432237619338047e-06    8    4    3    1
 2.745245506651731e-05    8    4    3    2
 -0.005879101079190923    8    4    3    3
 9.065020662211152e-05    8    4    4    1
 0.0005778297800546991    8    4    4    2
 0.0003232078915305963    8    4    4    3
 0.001041490507784299    8    4    4    4
 -4.080612725086783e-05    8    4    5    1
 -0.00200095323590787    8    4    5    2
 -0.0009577281294864438    8    4    5    3
 0.004538685682753985    8    4    5    4
 -0.003274533263014165    8    4    5    5
 3.204205091049026e-05    8    4    6    1
 0.001277347836767769    8    4    6    2
 -0.00199512883836297    8    4    6    3
 -2.132539422516894e-05    8    4    6    4
 -0.0004515533645124225    8    4    6    5
 -0.003513447197048446    8    4    6    6
 -2.5439148013869e-05    8    4    7    1
 0.0005834124375326599    8    4    7    2
 -0.000774399205961054    8    4    7    3
 -0.004830880720273339    8    4    7    4
 -0.002833533944897311    8    4    7    5
 0.0004471916246331451    8    4    7    6
 -0.003507176782419959    8    4    7    7
 1.924939748336072e-05    8    4    8    1
 0.0003651893060577731    8    4    8    2
 0.0009575764202287616    8    4    8    3
 0.006032514352564686    8    4    8    4
 0.0007971323673839184    8    5    1    1
 -0.0002416097688557387    8    5    2    1
 -0.006288180185905278    8    5    2    2
 2.046518885061296e-05    8    5    3    1
 0.0009779798937109827    8    5    3    2
 -0.006538523370310016    8    5    3    3
 -4.734373703763951e-05    8    5    4    1
 -0.001739596331274569    8    5    4    2
 0.000126296370518075    8    5    4    3
 0.005994777536254753    8    5    4    4
 0.0001104996843820443    8    5    5    1
 0.0001880392903167821    8    5    5    2
 0.0001669801921920331    8    5    5    3
 0.004069698669020768    8    5    5    4
 -0.003487067564036207    8    5    5    5
 2.129244672083686e-05    8    5    6    1
 -0.0001641597633542928    8    5    6    2
 0.001267034859314611    8    5    6    3
 -0.0002486456909472304    8    5    6    4
 6.19231393952516e-05    8    5    6    5
 -0.007476209593886205    8    5    6    6
 -7.352216958516331e-06    8    5    7    1
 -0.000846630857024409    8    5    7    2
 -0.0001978372193896607    8    5    7    3
 -0.002671217359145287    8    5    7    4
 -0.00128432077450297    8    5    7    5
 -0.0006543698874815329    8    5    7    6
 -0.002038524952482669    8    5    7    7
 -7.416923070041105e-05    8    5    8    1
 0.004100785901474656    8    5    8    2
 0.000232485231535185    8    5    8    3
 -0.004169245315664661    8    5    8    4
 0.0135183535719755    8    5    8    5
 -0.003313531703553785    8    6    1    1
 0.0003282580576296963    8    6    2    1
 0.003450209503348773    8    6    2    2
 -0.000268122781526125    8    6    3    1
 -0.0125032873357414    8    6    3    2
 0.004893511100105992    8    6    3    3
 4.760686009033487e-05    8    6    4    1
 0.001153251773145466    8    6    4    2
 -0.002681901558451996    8    6    4    3
 -0.0009641662535147574    8    6    4    4
 -4.623808798341828e-05    8    6    5    1
 -0.0008910677035495905    8    6    5    2
 0.003194158908394865    8    6    5    3
 0.001108178599279383    8    6    5    4
 -0.005002829864400419    8    6    5    5
 0.000163337673211501    8    6    6    1
 0.0006814756060247529    8    6    6    2
 -0.004748420164151778    8    6    6    3
 0.002430856554456294    8    6    6    4
 -0.005454501865861307    8    6    6    5
 0.01407682262108568    8    6    6    6
 -3.78621527705493e-05    8    6    7    1
 0.001365677990821053    8    6    7    2
 0.00134084171911747    8    6    7    3
 0.001456959233530256    8    6    7    4
 -0.001414952260260333    8    6    7    5
 0.007685959971694738    8    6    7    6
 0.001887003720240231    8    6    7    7
 7.795291613536966e-05    8    6    8    1
 0.002636698160796611    8    6    8    2
 0.003199471773389022    8    6    8    3
 0.001092646563418135    8    6    8    4
 -0.001384546091524009    8    6    8    5
 0.01123104808441825    8    6    8    6
 0.0007325502712395496    8    7    1    1
 5.536033739447777e-05    8    7    2    1
 0.005989459397652571    8    7    2    2
 -1.613227950626912e-05    8    7    3    1
 0.005607742273750797    8    7    3    2
 0.006630418914462228    8    7    3    3
 3.49139782164509e-05    8    7    4    1
 0.002182147098216986    8    7    4    2
 0.0008079253101405685    8    7    4    3
 -0.009053637765851134    8    7    4    4
 6.897914287740131e-05    8    7    5    1
 -0.0005940215749804592    8    7    5    2
 -0.00175596494716741    8    7    5    3
 -0.006427849744979832    8    7    5    4
 0.006318797228794897    8    7    5    5
 3.398188820592459e-07    8    7    6    1
 0.001603348659451898    8    7    6    2
 0.0004650409769998459    8    7    6    3
 -0.0004141235694229742    8    7    6    4
 0.001064667287276543    8    7    6    5
 0.005725376623573043    8    7    6    6
 0.0002288363325452971    8    7    7    1
 0.0001000415047507836    8    7    7    2
 -0.002359997637212119    8    7    7    3
 0.001460011737795402    8    7    7    4
 0.003387224993368557    8    7    7    5
 -0.003092010398390518    8    7    7    6
 0.00311112708308981    8    7    7    7
 5.955891958334363e-05    8    7    8    1
 -0.002657346370898549    8    7    8    2
 -0.00310929615036907    8    7    8    3
 0.000663074914784604    8    7    8    4
 0.001313935769704963    8    7    8    5
 -0.002266722726775649    8    7    8    6
 0.009708836401987614    8    7    8    7
 0.2588502635173852    8    8    1    1
 0.002338619423024449    8    8    2    1
 0.3803220824264138    8    8    2    2
 0.0006603334461725216    8    8    3    1
 0.04096216129974857    8    8    3    2
 0.3709405996132352    8    8    3    3
 7.050880091751584e-05    8    8    4    1
 0.006416961078921641    8    8    4    2
 0.001730642225487779    8    8    4    3
 0.2433341090302692    8    8    4    4
 0.0007284672772144075    8    8    5    1
 0.02548167174513221    8    8    5    2
 0.00643738570549781    8    8    5    3
 -0.05118579404613706    8    8    5    4
 0.3516536607588221    8    8    5    5
 -0.0001402825729536379    8    8    6    1
 -0.01098436281136653    8    8    6    2
 0.02671344286000484    8    8    6    3
 -0.00738447425614204    8    8    6    4
 0.01465166327177893    8    8    6    5
 0.3139937019305511    8    8    6    6
 0.0006438926125508018    8    8    7    1
 0.00557470295857572    8    8    7    2
 0.006408993895722994    8    8    7    3
 0.0236499428341724    8    8    7    4
 0.03279552243488083    8    8    7    5
 -0.0253021709470038    8    8    7    6
 0.321196911303171    8    8    7    7
 0.003785097753085109    8    8    8    1
 0.004550970744219955    8    8    8    2
 0.0009832773253057045    8    8    8    3
 -0.007473080022443099    8    8    8    4
 -0.001483676994052775    8    8    8    5
 -0.003540527225380228    8    8    8    6
 0.00573995208384771    8    8    8    7
 0.3772054635642612    8    8    8    8
 0.008264939366125853    9    1    1    1
 -0.0001964930534447761    9    1    2    1
 -0.001647603726249337    9    1    2    2
 2.098698789555093e-05    9    1    3    1
 -0.0002682321750225868    9    1    3    2
 -0.001761388987897163    9    1    3    3
 -6.502424741745315e-06    9    1    4    1
 -0.0003272703401243893    9    1    4    2
 4.319588907664412e-07    9    1    4    3
 0.0005173642113139665    9    1    4    4
 -7.644283013245946e-05    9    1    5    1
 1.170511274092691e-05    9    1    5    2
 7.645602427459343e-07    9    1    5    3
 0.0006406965724467467    9    1    5    4
 -0.001132741904407751    9    1    5    5
 -8.59597531402328e-05    9    1    6    1
 -6.166731823695944e-05    9    1    6    2
 8.965652502699245e-06    9    1    6    3
 3.095217213782222e-06    9    1    6    4
 -3.27441881316161e-05    9    1    6    5
 -0.001346507309552127    9    1    6    6
 5.645078156177497e-05    9    1    7    1
 -0.00019702518368734    9    1    7    2
 3.47474785783107e-05    9    1    7    3
 -0.0001740938679342156    9    1    7    4
 -0.0003775692502873911    9    1    7    5
 0.0001300628987711822    9    1    7    6
 -0.0009521297833898115    9    1    7    7
 0.004196583608498878    9    1    8    1
 -0.00018245940093363    9    1    8    2
 -3.171243088536795e-05    9    1    8    3
 -0.0001421774754354947    9    1    8    4
 -3.923093930128773e-05    9    1    8    5
 -0.0001699060380630512    9    1    8    6
 -8.96875115220275e-05    9    1    8    7
 0.004752991096800389    9    1    8    8
 0.006694784898165379    9    1    9    1
 -0.006857208634170295    9    2    1    1
 -0.0004464577251381101    9    2    2    1