 &FCI NORB=  21,NELEC=32,MS2=0,
  ORBSYM=1,1,1,1,1,1,1,1,1,1,1,1,1,1,1,1,1,1,1,1,1,
  ISYM=1,
 &END
 0.661064383723718    1    1    1    1
 -0.02875537626087191    2    1    1    1
 0.003420656311341433    2    1    2    1
 0.2150965876851076    2    2    1    1
 0.01718264300913619    2    2    2    1
 0.5212342405011803    2    2    2    2
 0.005848934399029351    3    1    1    1
 -0.000963677601101871    3    1    2    1
 -0.003796198777542833    3    1    2    2
 0.0009605813890748091    3    1    3    1
 -0.01567753796824461    3    2    1    1
 -0.001623964001344977    3    2    2    1
 0.02264589280478765    3    2    2    2
 0.01039412849426097    3    2    3    1
 0.2044320765431725    3    2    3    2
 0.1976228467372541    3    3    1    1
 0.01770542696586985    3    3    2    1
 0.5029990373090815    3    3    2    2
 -0.006610679366809646    3    3    3    1
 -0.03331459775292187    3    3    3    2
 0.5293951362800005    3    3    3    3
 0.00656302980234608    4    1    1    1
 -0.001778028971791866    4    1    2    1
 0.001552540476789854    4    1    2    2
 0.0006116299639783813    4    1    3    1
 -0.0006631490869393471    4    1    3    2
 0.00404450661200619    4    1    3    3
 0.005287696978471214    4    1    4    1
 -0.05739186677139532    4    2    1    1
 0.004123123992151031    4    2    2    1
 0.0185059738287694    4    2    2    2
 -0.001555487469368453    4    2    3    1
 -0.007292351472026766    4    2    3    2
 0.05079664883089057    4    2    3    3
 0.003285337704579672    4    2    4    1
 0.06714325700162187    4    2    4    2
 0.008604173616969413    4    3    1    1
 -0.00241585591940769    4    3    2    1
 -0.01348780949281135    4    3    2    2
 0.00482251740228104    4    3    3    1
 0.07721957829102949    4    3    3    2
 -0.02922363707502851    4    3    3    3
 0.0007603811514450762    4    3    4    1
 -0.005955724702239754    4    3    4    2
 0.05056659291820159    4    3    4    3
 0.3337022301969441    4    4    1    1
 0.00474938134151337    4    4    2    1
 0.4045995432090475    4    4    2    2
 -0.0007286255975590128    4    4    3    1
 -0.009909040846115096    4    4    3    2
 0.374770918573533    4    4    3    3
 0.00132775922454953    4    4    4    1
 -0.07503152997210136    4    4    4    2
 0.009420599502546888    4    4    4    3
 0.5342486532537356    4    4    4    4
 -0.02017427260273716    5    1    1    1
 0.00104672114261729    5    1    2    1
 -0.005849399011658148    5    1    2    2
 -0.0002629020789909359    5    1    3    1
 0.0006882834256573362    5    1    3    2
 -0.004643890337477191    5    1    3    3
 -0.0008864997084917121    5    1    4    1
 0.003331944099937505    5    1    4    2
 -0.0004119722445162259    5    1    4    3
 -0.0119141521565276    5    1    4    4
 0.002024453601283134    5    1    5    1
 -0.004791698394786445    5    2    1    1
 0.0001639365145868141    5    2    2    1
 0.0002091041132307966    5    2    2    2
 -5.173042200215029e-05    5    2    3    1
 4.632672168609587e-05    5    2    3    2
 0.004016467422336679    5    2    3    3
 0.0006013486478480337    5    2    4    1
 0.007898445161869319    5    2    4    2
 -2.478431041571562e-05    5    2    4    3
 -0.009984124990932449    5    2    4    4
 0.0003454949440553842    5    2    5    1
 0.0009728215327461489    5    2    5    2
 0.0002054071806523666    5    3    1    1
 -0.0001024204919423323    5    3    2    1
 0.0002045702410875728    5    3    2    2
 0.0004707660227898924    5    3    3    1
 0.008328944746036279    5    3    3    2
 -0.001172530157272822    5    3    3    3
 9.119590204668265e-05    5    3    4    1
 -6.673480829196606e-05    5    3    4    2
 0.005629560389836917    5    3    4    3
 0.001912252366210995    5    3    4    4
 -6.294436021298758e-05    5    3    5    1
 4.772680638640232e-05    5    3    5    2
 0.0006538408138905206    5    3    5    3
 0.01642025627484977    5    4    1    1
 0.001360272196254939    5    4    2    1
 0.03764509564952373    5    4    2    2
 -0.0001828505757789003    5    4    3    1
 0.000158900884593124    5    4    3    2
 0.03389089647800868    5    4    3    3
 0.0002814643098905528    5    4    4    1
 -0.008101047207038158    5    4    4    2
 0.00125865260448913    5    4    4    3
 0.04995007850239819    5    4    4    4
 -0.00198990450273695    5    4    5    1
 -0.001251402017722819    5    4    5    2
 0.0004484447360087497    5    4    5    3
 0.01117410434652249    5    4    5    4
 0.1614396801702386    5    5    1    1
 -0.003089307848424594    5    5    2    1
 0.09478070737184836    5    5    2    2
 0.0002783053962463131    5    5    3    1
 -0.003711284946037471    5    5    3    2
 0.09234584580870657    5    5    3    3
 -0.004900779303683572    5    5    4    1
 -0.009223656806305434    5    5    4    2
 0.0004851410233830955    5    5    4    3
 0.1171061000954379    5    5    4    4
 0.00414114655389753    5    5    5    1
 -3.297414297103997e-05    5    5    5    2
 -0.001663984796103071    5    5    5    3
 -0.04650426582701037    5    5    5    4
 0.5484343925309879    5    5    5    5
 -0.01022204160491862    6    1    1    1
 0.001267225794768571    6    1    2    1
 -0.003526115777692481    6    1    2    2
 -0.000532251525924711    6    1    3    1
 0.003602475692525021    6    1    3    2
 -0.001784530699100844    6    1    3    3
 -0.003007552734080807    6    1    4    1
 0.004146136649321245    6    1    4    2
 0.001996574442377258    6    1    4    3
 -0.009324264544400478    6    1    4    4
 0.001007426090327257    6    1    5    1
 0.0004064891250588904    6    1    5    2
 0.0002912881979494975    6    1    5    3
 -0.001158726773125251    6    1    5    4
 0.002621808298953286    6    1    5    5
 0.003348026851703679    6    1    6    1
 0.01080890989983264    6    2    1    1
 -0.003598429598924618    6    2    2    1
 -0.05792077651702561    6    2    2    2
 0.001291796420502964    6    2    3    1
 -0.01277181343765586    6    2    3    2
 -0.0238353585861059    6    2    3    3
 0.003491073391066024    6    2    4    1
 0.01507292408768685    6    2    4    2
 0.02858355553774243    6    2    4    3
 -0.001088112547484296    6    2    4    4
 -0.0002600805936605211    6    2    5    1
 0.002476340674453313    6    2    5    2
 0.003459465674348321    6    2    5    3
 -0.0006827073961948754    6    2    5    4
 0.0004354393568770025    6    2    5    5
 0.0022405545300902    6    2    6    1
 0.07635306353056637    6    2    6    2
 -0.03087551523868343    6    3    1    1
 0.0009007568269302491    6    3    2    1
 -0.01820856592819834    6    3    2    2
 0.002111680049825426    6    3    3    1
 0.03252030607877289    6    3    3    2
 -0.0007524181738585408    6    3    3    3
 0.002745134188953641    6    3    4    1
 0.04157303018174731    6    3    4    2
 0.02854222993448661    6    3    4    3
 -0.0365718324627682    6    3    4    4
 0.001766819974339025    6    3    5    1
 0.005348541213857173    6    3    5    2
 0.003575987726929231    6    3    5    3
 -0.003616118519883317    6    3    5    4
 -0.00631099884511075    6    3    5    5
 0.004429357664932215    6    3    6    1
 0.04425598884847736    6    3    6    2
 0.06429153699341171    6    3    6    3
 -0.08011375859184605    6    4    1    1
 0.006297157412954835    6    4    2    1
 0.03884287752602655    6    4    2    2
 0.002570069256753849    6    4    3    1
 0.08240670075088313    6    4    3    2
 0.03938084759053714    6    4    3    3
 -0.001249682501133914    6    4    4    1
 0.05014437895968996    6    4    4    2
 0.01751009329804227    6    4    4    3
 -0.07751892951599838    6    4    4    4
 0.003934678960050338    6    4    5    1
 0.005788398373083828    6    4    5    2
 0.002305041010454271    6    4    5    3
 -0.006971925733028126    6    4    5    4
 -0.01166406765427731    6    4    5    5
 0.006467376031794897    6    4    6    1
 -0.01099327867545077    6    4    6    2
 0.04154121100570081    6    4    6    3
 0.1039580083712887    6    4    6    4
 -0.004979704916829137    6    5    1    1
 0.0005620916058164897    6    5    2    1
 0.007573528914123636    6    5    2    2
 0.0004080050948648169    6    5    3    1
 0.01025941712080129    6    5    3    2
 0.007259504333323934    6    5    3    3
 0.0001194426379433275    6    5    4    1
 0.005480083750699898    6    5    4    2
 0.002280156200659416    6    5    4    3
 -0.005716872831591919    6    5    4    4
 0.0004239884093862939    6    5    5    1
 0.0006384016856138622    6    5    5    2
 0.000310064961858778    6    5    5    3
 0.0003122360604959069    6    5    5    4
 -0.009301766446540309    6    5    5    5
 0.0004736859263511153    6    5    6    1
 -0.001464055102492496    6    5    6    2
 0.004714553781878967    6    5    6    3
 0.01197878233777965    6    5    6    4
 0.001686476807727725    6    5    6    5
 0.2397287091143417    6    6    1    1
 0.01163496955855869    6    6    2    1
 0.4771913182034362    6    6    2    2
 0.00314860170566636    6    6    3    1
 0.112651437485845    6    6    3    2
 0.4361959567286604    6    6    3    3
 0.002818176367205938    6    6    4    1
 -0.008003234838561496    6    6    4    2
 0.0394702456562762    6    6    4    3
 0.4221814945568666    6    6    4    4
 -0.007003107151302965    6    6    5    1
 -0.002021905914296294    6    6    5    2
 0.005712028304303521    6    6    5    3
 0.03946349355169244    6    6    5    4
 0.09767439699246817    6    6    5    5
 -0.003004414574887537    6    6    6    1
 -0.03260233575287921    6    6    6    2
 0.005303008846592034    6    6    6    3
 0.05598809872419378    6    6    6    4
 0.01010118174862279    6    6    6    5
 0.526744849750894    6    6    6    6
 0.008926961708764627    7    1    1    1
 -0.0008901452030224064    7    1    2    1
 -0.003908622683955127    7    1    2    2
 0.0005057331320404684    7    1    3    1
 -0.0008383200101536218    7    1    3    2
 -0.003483969152841763    7    1    3    3
 0.0002711065064925204    7    1    4    1
 -0.001448152812879727    7    1    4    2
 -1.202203160780404e-05    7    1    4    3
 0.0006986776821744696    7    1    4    4
 -0.0004974743066749727    7    1    5    1
 -0.0001008923620980957    7    1    5    2
 -6.114700387485956e-05    7    1    5    3
 -5.330324388442049e-05    7    1    5    4
 0.0005226180428803149    7    1    5    5
 -0.001216974758165209    7    1    6    1
 0.001183292288007507    7    1    6    2
 -0.0008916428193782327    7    1    6    3
 -0.002754636828808183    7    1    6    4
 -0.0002256083295911525    7    1    6    5
 -0.002099629724746037    7    1    6    6
 0.001653789542803987    7    1    7    1
 -0.001868191943163709    7    2    1    1
 -0.003272006646467054    7    2    2    1
 -0.03920995185289066    7    2    2    2
 0.001392401490112376    7    2    3    1
 0.01630192391965643    7    2    3    2
 -0.02973376183474203    7    2    3    3
 0.0004690475824251092    7    2    4    1
 -0.007361340319638187    7    2    4    2
 -0.001475073989104    7    2    4    3
 -0.01567628047138116    7    2    4    4
 0.0002236464319973453    7    2    5    1
 -0.0005702905361502747    7    2    5    2
 -0.0003963571231159953    7    2    5    3
 -0.002021084971451842    7    2    5    4
 -0.000140668000504705    7    2    5    5
 0.0001872466356997032    7    2    6    1
 0.006223586094360901    7    2    6    2
 -0.002868485434609754    7    2    6    3
 0.005731909555155984    7    2    6    4
 0.0006157663228418302    7    2    6    5
 -0.02038482150531532    7    2    6    6
 0.001852524154076718    7    2    7    1
 0.0454665332426201    7    2    7    2
 0.0145360352582639    7    3    1    1
 0.0008636396751421499    7    3    2    1
 0.02952989228121593    7    3    2    2
 -0.0002446499239599081    7    3    3    1
 0.01471885532802831    7    3    3    2
 0.01606296994912299    7    3    3    3
 -0.001484894697165187    7    3    4    1
 -0.01636226467577224    7    3    4    2
 0.007929217912959986    7    3    4    3
 0.02619954042426585    7    3    4    4
 -0.0008297480234867507    7    3    5    1
 -0.002050868098487708    7    3    5    2
 0.0008790523276694681    7    3    5    3
 0.003135663233652729    7    3    5    4
 0.002779796839485902    7    3    5    5
 -0.0001250547554807607    7    3    6    1
 -0.01206921173905733    7    3    6    2
 -0.005491838782896372    7    3    6    3
 0.0007864873614231802    7    3    6    4
 0.0003422443587083124    7    3    6    5
 0.03753387782317124    7    3    6    6
 -0.001498880113154272    7    3    7    1
 -0.008921296532562533    7    3    7    2
 0.05533377990983692    7    3    7    3
 -0.01261649461122011    7    4    1    1
 -0.000262384050897832    7    4    2    1
 -0.0210762548012276    7    4    2    2
 -0.001418204844337093    7    4    3    1
 -0.03101370377739582    7    4    3    2
 -0.002163921266701806    7    4    3    3
 0.0007704700969203976    7    4    4    1
 0.01182631273547289    7    4    4    2
 -0.01350964539479849    7    4    4    3
 -0.025772544830397    7    4    4    4
 0.000773015086300009    7    4    5    1
 0.001370612027520731    7    4    5    2
 -0.001433130557811177    7    4    5    3
 -0.003226148743700552    7    4    5    4
 -0.001544353941252059    7    4    5    5
 -0.0003545829635100729    7    4    6    1
 0.008132194544313697    7    4    6    2
 -0.00136475861523809    7    4    6    3
 -0.006047531739251833    7    4    6    4
 -0.0009064854246742544    7    4    6    5
 -0.03315554778923213    7    4    6    6
 0.001759232874232665    7    4    7    1
 0.01408534190379172    7    4    7    2
 -0.02215383679925899    7    4    7    3
 0.02433140012116865    7    4    7    4
 -0.003668341017222738    7    5    1    1
 4.755185224617972e-05    7    5    2    1
 -0.003286602327274955    7    5    2    2
 -0.0001999032527099757    7    5    3    1
 -0.003491303135143188    7    5    3    2
 -0.001124302471926932    7    5    3    3
 0.0001251170300691946    7    5    4    1
 0.001519099058394021    7    5    4    2
 -0.001489433542083491    7    5    4    3
 -0.00430215336057227    7    5    4    4
 8.705263219443006e-05    7    5    5    1
 0.0001414225326716455    7    5    5    2
 -0.0001261495952306977    7    5    5    3
 -0.0005688342153252472    7    5    5    4
 0.0007398390618461447    7    5    5    5
 1.119672649847379e-05    7    5    6    1
 0.0009014315575261828    7    5    6    2
 -6.360876449039334e-06    7    5    6    3
 -0.0003961696715648206    7    5    6    4
 -0.0002113523619295135    7    5    6    5
 -0.004789403288236301    7    5    6    6
 0.0001030498815260518    7    5    7    1
 0.00144617769249625    7    5    7    2
 -0.002267788298501319    7    5    7    3
 0.002619267034235161    7    5    7    4
 0.000646395796647393    7    5    7    5
 -0.003865175791152971    7    6    1    1
 0.0009286929677859955    7    6    2    1
 0.005687588017942846    7    6    2    2
 -0.001146775894329551    7    6    3    1
 -0.01980210463942681    7    6    3    2
 0.007518166149850468    7    6    3    3
 -0.0002885762376147634    7    6    4    1
 0.005181510356992085    7    6    4    2
 -0.008505928919397129    7    6    4    3
 -0.0009085889279086103    7    6    4    4
 0.000112505616069451    7    6    5    1
 0.0004619926688135905    7    6    5    2
 -0.0008701777051467012    7    6    5    3
 -2.356696204276764e-05    7    6    5    4
 -0.0008054216015915884    7    6    5    5
 -0.0002837820486055239    7    6    6    1
 -0.003486975726305841    7    6    6    2
 0.00017325996280923    7    6    6    3
 -0.006844124205674036    7    6    6    4
 -0.0009017825659736801    7    6    6    5
 -0.008708295566515945    7    6    6    6
 -0.0003980441066260033    7    6    7    1
 -0.006629901012051484    7    6    7    2
 -0.003928369797771079    7    6    7    3
 0.006506087502867402    7    6    7    4
 0.0008374632761949255    7    6    7    5
 0.01543022225880797    7    6    7    6
 0.1922592732651461    7    7    1    1
 0.01279354608184469    7    7    2    1
 0.4173352624663054    7    7    2    2
 -0.006167316713444781    7    7    3    1
 -0.04955995502185283    7    7    3    2
 0.4461162386620662    7    7    3    3
 0.004291153642532575    7    7    4    1
 0.03809753254722329    7    7    4    2
 -0.04767947153570209    7    7    4    3
 0.3317288471848727    7    7    4    4
 -0.004257784039037043    7    7    5    1
 0.00279475561118558    7    7    5    2
 -0.003734753232366685    7    7    5    3
 0.0282589221077733    7    7    5    4
 0.09264722773364957    7    7    5    5
 -0.003473932253240677    7    7    6    1
 -0.02880823107240113    7    7    6    2
 -0.01427825362949799    7    7    6    3
 0.01950619312124681    7    7    6    4
 0.004557579275986285    7    7    6    5
 0.3545084299504873    7    7    6    6
 -0.0004926551910506838    7    7    7    1
 0.01597563945535765    7    7    7    2
 -0.02533884838564447    7    7    7    3
 0.03160973438404668    7    7    7    4
 0.002422571747846936    7    7    7    5
 0.01361260240596825    7    7    7    6
 0.4979170254467885    7    7    7    7
 -0.005710628745968682    8    1    1    1
 0.0003579083455351843    8    1    2    1
 -0.00237585481406731    8    1    2    2
 -0.0001369346016743826    8    1    3    1
 0.0005786421388999226    8    1    3    2
 -0.001853746065522174    8    1    3    3
 -0.000676410953859086    8    1    4    1
 0.001520545542383634    8    1    4    2
 -0.0001858227513488677    8    1    4    3
 -0.005115610909900334    8    1    4    4
 0.000838725255360264    8    1    5    1
 0.0001530902726618006    8    1    5    2
 -2.890269537800352e-05    8    1    5    3
 -0.0008249415383540211    8    1    5    4
 0.001932931722199463    8    1    5    5
 0.0006773681657099798    8    1    6    1
 -0.0001860278201641251    8    1    6    2
 0.0007891662094557227    8    1    6    3
 0.001851537370910499    8    1    6    4
 0.0001790272581896383    8    1    6    5
 -0.002852153480780844    8    1    6    6
 -0.000256064902940517    8    1    7    1
 0.0002748881851714047    8    1    7    2
 -0.000409454577479465    8    1    7    3
 0.0002986654472554118    8    1    7    4
 -2.118941316666955e-05    8    1    7    5
 2.41844607913333e-05    8    1    7    6
 -0.001643775115157456    8    1    7    7
 0.009523745497755264    8    1    8    1
 0.0002609895131940067    8    2    1    1
 -8.073607655017384e-05    8    2    2    1
 -4.685667603373633e-05    8    2    2    2
 0.0001316712205870411    8    2    3    1
 0.0003593944815371713    8    2    3    2
 -0.0001156816036406426    8    2    3    3
 0.0004390983443830577    8    2    4    1
 0.0001445352109725424    8    2    4    2
 -4.95139172500912e-06    8    2    4    3
 -0.001194029125291113    8    2    4    4
 -2.252248923263906e-05    8    2    5    1
 4.023184006923652e-05    8    2    5    2
 8.383790806753109e-06    8    2    5    3
 -0.0001319217746029661    8    2    5    4
 0.000212238969856352    8    2    5    5
 -6.016695238779813e-05    8    2    6    1
 -0.0003607445305377807    8    2    6    2
 -0.0001162886351310238    8    2    6    3
 0.0005020760011770063    8    2    6    4
 7.436854965020112e-05    8    2    6    5
 -0.0001715796030197582    8    2    6    6
 0.0001436158210096228    8    2    7    1
 0.0006160269052238762    8    2    7    2
 5.650006205217635e-05    8    2    7    3
 -2.550728242784166e-05    8    2    7    4
 4.184668905878053e-05    8    2    7    5
 -0.000150712170656445    8    2    7    6
 0.0001055094994831049    8    2    7    7
 4.67651234060118e-05    8    2    8    1
 0.05053311865291852    8    2    8    2
 -0.0003164424238959211    8    3    1    1
 0.0001247573464833317    8    3    2    1
 0.0004994449883608607    8    3    2    2
 0.0001070287761538837    8    3    3    1
 0.0001584055418221935    8    3    3    2
 0.0003029117845174158    8    3    3    3
 -8.59580315225241e-05    8    3    4    1
 -6.702324859677827e-05    8    3    4    2
 -0.0002094722506945145    8    3    4    3
 0.0003044220691073843    8    3    4    4
 5.659670862157697e-06    8    3    5    1
 -4.148207313912561e-06    8    3    5    2
 2.279357847172923e-05    8    3    5    3
 6.008125022477196e-05    8    3    5    4
 -0.000286373406734079    8    3    5    5
 6.787393596438377e-05    8    3    6    1
 -0.0003715859006364877    8    3    6    2
 -0.0002554654066107549    8    3    6    3
 -5.093846476654303e-05    8    3    6    4
 2.902092890237217e-06    8    3    6    5
 0.0004196799651059198    8    3    6    6
 -0.0001105931203238315    8    3    7    1
 9.794495202901936e-05    8    3    7    2
 0.0004896066503946196    8    3    7    3
 -5.731034248509197e-06    8    3    7    4
 -1.54710459601457e-05    8    3    7    5
 -0.0001105235011548652    8    3    7    6
 0.000736521070013779    8    3    7    7
 -5.812436878149113e-06    8    3    8    1
 0.002958692691118013    8    3    8    2
 0.03332616966284362    8    3    8    3
 -0.0001672210095040845    8    4    1    1
 0.0003794574943322103    8    4    2    1
 0.001604846712236163    8    4    2    2
 -0.0001163512362163384    8    4    3    1
 -0.0003482027396707994    8    4    3    2
 0.0009809025207339304    8    4    3    3
 -0.0004726543588985605    8    4    4    1
 -0.001525374148122187    8    4    4    2
 1.148494000546062e-05    8    4    4    3
 0.004013881198600989    8    4    4    4
 -9.596303618851e-05    8    4    5    1
 -0.0001932335778248941    8    4    5    2
 4.917695952772625e-06    8    4    5    3
 0.0005962005755769918    8    4    5    4
 -0.0003683131759333036    8    4    5    5
 7.242032219287949e-05    8    4    6    1
 -0.0001676339382168819    8    4    6    2
 -0.0008415827157475162    8    4    6    3
 -0.001434364520164595    8    4    6    4
 -0.0002074414470966852    8    4    6    5
 0.001749997883536893    8    4    6    6
 -4.833222863797289e-05    8    4    7    1
 -0.0002964531126141677    8    4    7    2
 0.0004566261507602021    8    4    7    3
 -0.0003281751381997448    8    4    7    4
 5.681817233778666e-05    8    4    7    5
 0.0001183747279232791    8    4    7    6
 0.00074825934264492    8    4    7    7
 0.004206072783673201    8    4    8    1
 -0.007582043514694702    8    4    8    2
 0.001283871887885471    8    4    8    3
 0.02484347886495278    8    4    8    4
 0.004797383311861531    8    5    1    1
 -0.0001325079413169146    8    5    2    1
 0.001782695612240888    8    5    2    2
 1.365560829465662e-05    8    5    3    1
 -0.0001100092722472202    8    5    3    2
 0.001635138201151707    8    5    3    3
 -0.0001587796190948079    8    5    4    1
 -0.0005161285437720721    8    5    4    2
 5.536650252782106e-05    8    5    4    3
 0.002809892003333168    8    5    4    4
 8.399724968168195e-05    8    5    5    1
 1.126791308399422e-05    8    5    5    2
 -5.243577832225694e-05    8    5    5    3
 0.0004423011439922832    8    5    5    4
 -0.002372735453510974    8    5    5    5
 6.7394126767713e-05    8    5    6    1
 6.139957574142704e-05    8    5    6    2
 -0.0002865744772515498    8    5    6    3
 -0.0007126149969352998    8    5    6    4
 0.0002193444586115292    8    5    6    5
 0.001969317466747674    8    5    6    6
 -1.900834705583876e-05    8    5    7    1
 8.585666147520703e-06    8    5    7    2
 0.0001345876824486006    8    5    7    3
 -1.727215230635924e-05    8    5    7    4
 -0.0007070048280597753    8    5    7    5
 -1.883026359922535e-05    8    5    7    6
 0.001566635735247821    8    5    7    7
 -5.063325955548259e-05    8    5    8    1
 -0.001038179008825213    8    5    8    2
 0.0003011599872280891    8    5    8    3
 0.002468169022240704    8    5    8    4
 0.001797903641804265    8    5    8    5
 0.0006796663983798502    8    6    1    1
 -0.0001941913281193119    8    6    2    1
 -0.00221960016241396    8    6    2    2
 3.760286376560946e-05    8    6    3    1
 -0.0008555970022586405    8    6    3    2
 -0.001904327106767573    8    6    3    3
 0.0001298111129338568    8    6    4    1
 0.0002227292040848565    8    6    4    2
 -0.0004330621331519762    8    6    4    3
 -0.002279438115074334    8    6    4    4
 4.423259107768425e-05    8    6    5    1
 5.453727729092081e-05    8    6    5    2
 -6.51974345239894e-05    8    6    5    3
 -0.0004565044496470935    8    6    5    4
 0.001222300783310706    8    6    5    5
 -0.0001091580471424193    8    6    6    1
 6.102373076593187e-05    8    6    6    2
 -0.000102016407567797    8    6    6    3
 -0.0003055383626093039    8    6    6    4
 -3.964008870046304e-05    8    6    6    5
 -0.002880519980617843    8    6    6    6
 7.068023623676143e-05    8    6    7    1
 6.692082833784367e-05    8    6    7    2
 -0.0003782603411849794    8    6    7    3
 0.0003521001890509703    8    6    7    4
 3.232434516831889e-05    8    6    7    5
 0.0002625914364513261    8    6    7    6
 -0.001237067399524445    8    6    7    7
 -0.00310557089582064    8    6    8    1
 -0.005321170230415458    8    6    8    2
 -0.003499124649568711    8    6    8    3
 -0.001762149248747864    8    6    8    4
 0.0001349851370455387    8    6    8    5
 0.01500379441621512    8    6    8    6
 -0.0002115474797537538    8    7    1    1
 0.0002375816882389595    8    7    2    1
 0.003057926093237216    8    7    2    2
 -6.315382586129866e-05    8    7    3    1
 0.0008573861254414058    8    7    3    2
 0.002883427422680052    8    7    3    3
 1.071061558863512e-05    8    7    4    1
 0.000122377012242466    8    7    4    2
 0.0001550782246620039    8    7    4    3
 0.001699189393857937    8    7    4    4
 -7.064309735485926e-05    8    7    5    1
 2.128502300132906e-05    8    7    5    2
 2.886456214550889e-05    8    7    5    3
 0.0005096151850748846    8    7    5    4
 -0.00258527697908509    8    7    5    5
 2.008071513997871e-05    8    7    6    1
 -0.0004573517446366686    8    7    6    2
 -6.629045268285052e-05    8    7    6    3
 0.0007801150251225649    8    7    6    4
 0.0001427400082752172    8    7    6    5
 0.003026589039277307    8    7    6    6
 -4.802729396604765e-05    8    7    7    1
 6.749957832823274e-05    8    7    7    2
 0.000709473453772683    8    7    7    3
 -0.000242103725999529    8    7    7    4
 -1.881937373139544e-05    8    7    7    5
 -4.657092800675012e-05    8    7    7    6
 0.00246755165370097    8    7    7    7
 -0.000678927473455414    8    7    8    1
 0.0007852008041028206    8    7    8    2
 0.003566018288044208    8    7    8    3
 0.003228868956194289    8    7    8    4
 0.0004761613362264922    8    7    8    5
 0.0009857131892158104    8    7    8    6
 0.01321079161555704    8    7    8    7
 0.2638861525887067    8    8    1    1
 0.008526842120755829    8    8    2    1
 0.4234557977267255    8    8    2    2
 -0.002062492924513548    8    8    3    1
 0.009199806340399491    8    8    3    2
 0.4032373806405199    8    8    3    3
 0.002913673970671771    8    8    4    1
 -0.01547676849072668    8    8    4    2
 -0.005287702623627391    8    8    4    3
 0.3931088826451553    8    8    4    4
 -0.007663664519806969    8    8    5    1
 -0.003084443707704023    8    8    5    2
 0.000542070815023533    8    8    5    3
 0.03408759328600864    8    8    5    4
 0.1074646805663295    8    8    5    5
 -0.00639436990092012    8    8    6    1
 -0.03456598770590738    8    8    6    2
 -0.02472479277208845    8    8    6    3
 -0.002216862395194891    8    8    6    4
 0.00267986553668273    8    8    6    5
 0.3994288079388574    8    8    6    6
 -0.001535572534405921    8    8    7    1
 -0.01877821963488562    8    8    7    2
 0.02662223709699545    8    8    7    3
 -0.01310545196875925    8    8    7    4
 -0.002444783328256213    8    8    7    5
 0.003871311746750122    8    8    7    6
 0.3542188013684653    8    8    7    7
 -0.003642623126278451    8    8    8    1
 -0.0001821407715966485    8    8    8    2
 0.001038034801110568    8    8    8    3
 0.00214524433225358    8    8    8    4
 0.002152195724439546    8    8    8    5
 -0.001672157074844408    8    8    8    6
 0.002740502348832744    8    8    8    7
 0.3957381206921001    8    8    8    8
 0.05239241218607953    9    1    1    1
 -0.003214222571873607    9    1    2    1
 0.01633374562174941    9    1    2    2
 0.0009429262935926244    9    1    3    1
 -0.002289864419503814    9    1    3    2
 0.01381580804557375    9    1    3    3
 0.00434622791362263    9    1    4    1
 -0.008446677086632704    9    1    4    2
 0.00170405583935002    9    1    4    3
 0.03358613317055387    9    1    4    4
 -0.005176322889180454    9    1    5    1
 -0.0008421221998387746    9    1    5    2
 0.000269373690453525    9    1    5    3
 0.00547046517181991    9    1    5    4
 -0.01297877872010257    9    1    5    5
 -0.004158543715882333    9    1    6    1
 0.002238019857826323    9    1    6    2
 -0.004101196811027953    9    1    6    3
 -0.01169991224236834    9    1    6    4
 -0.001110758653499504    9    1    6    5
 0.02019377296388172    9    1    6    6
 0.001651851669015331    9    1    7    1
 -0.0008120555832691008    9    1    7    2
 0.002055008163787887    9    1    7    3
 -0.001948084513777206    9    1    7    4
 0.0001927879908866573    9    1    7    5
 -0.0004670386680491456    9    1    7    6
 0.012246310521544    9    1    7    7
 -0.001827795955196864    9    1    8    1
 0.0003586910749551711    9    1    8    2
 -7.882071486091404e-05    9    1    8    3
 0.0005266565063906333    9    1    8    4
 -0.001035698429697596    9    1    8    5
 -0.00034761580208456    9    1    8    6
 6.233375190154214e-05    9    1    8    7
 0.02162085180883998    9    1    8    8
 0.01583195853793114    9    1    9    1
 -0.002316468638049417    9    2    1    1