     729
 i =       49, E =     -6086.3331263544
  O        -1.1898944186       -1.4898395056        0.1041167791
  O        -2.4641820640       -0.7900348459        0.0972637125
  O        -1.2880949297       -0.1825972303       -0.4997477632
  O         2.6663542459       -1.2860078634       -1.1867515275
  O         1.5854533698       -1.8617273189       -0.3981610916
  O         1.6757615933       -0.4154128664       -0.5894123679
  O         0.4779243072        4.0541550383        0.0014421655
  O        -0.1966013326        2.8383481575        0.3985692805
  O        -0.9723321788        4.0491300110        0.1942517314
  O         0.0940432257       -0.4924404307       -4.4352690717
  O         1.3823460280       -0.1991003917       -3.8471513602
  O         0.2063212917       -0.2940280445       -2.9890520097
  O         0.7858324938       -0.3888738653        3.9593761892
  O         0.3939408062        0.1022921235        2.6565999189
  O        -0.0926886297        0.7778186311        3.8496512333
  O         0.9056147871       -4.1529314273       -2.1743355461
  O        -0.4028800060       -3.5493061585       -2.0772670222
  O         0.4943630559       -3.1626745337       -3.1569303014
  O        -3.1567502054        1.8776403963       -2.3867744268
  O        -3.8466469139        1.4886265227       -1.1769204963
  O        -2.9691929648        2.6591955601       -1.1813392124
  O         1.0973260944       -4.4540567008        1.3817862397
  O        -0.1049543873       -3.7522014064        0.9845418396
  O         0.6924066263       -3.2499992150        2.0833301218
  O         3.9458553502        1.1873941094       -1.6787501997
  O         3.5588567954        1.6743408942       -2.9931703468
  O         2.6720878292        1.8752161104       -1.8692930973
  O         2.4675152471        1.6712642978        0.9798110887
  O         2.7639318413        2.1686078615        2.3062095452
  O         2.7667971351        3.0786304245        1.1814832881
  O        -3.2548652586        1.4846100127        2.6612892380
  O        -2.3704403636        1.5844175872        1.5091043845
  O        -2.1768201257        2.4642492214        2.6611200883
  O        -2.3736824837       -1.9559975879       -2.8693706261
  O        -3.5616805155       -1.1852807090       -2.5674979160
  O        -2.5605584274       -0.6239461088       -3.4510398404
  O         5.0310832289       -1.5826053062       -5.2293366782
  O         4.1474560709       -2.6660694303       -4.8395039884
  O         4.0534114483       -1.3853989012       -4.1548427010
  O        -5.9225533993        0.5909287338        0.5918711649
  O        -7.2136458163        0.2946374286       -0.0087732228
  O        -7.1446932945        0.8930020127        1.3110271568
  O        -2.7713953606       -4.7504074087        0.2911630173
  O        -3.5520995246       -5.6264769100       -0.5811556377
  O        -2.9584409979       -4.4157977986       -1.1081087960
  O         2.9495021552       -1.7901635748        2.6932472965
  O         3.7581724185       -1.1719421530        1.6747522774
  O         3.5569260116       -0.4968557107        2.9549276823
  O        -1.5666477251       -2.0672138962        3.3646344197
  O        -2.5779344480       -2.5667936825        2.4639023623
  O        -2.6597428118       -1.1972509021        2.9637622657
  O         7.1020316591       -0.5920717360        0.5867473174
  O         5.8426576157       -0.2981138451       -0.0953926165
  O         7.1114647867        0.0992133622       -0.6912506765
  O         0.6002259938        2.8669253116       -3.7520453543
  O        -0.1979761577        2.6665823288       -2.5539307682
  O        -0.8091305593        2.5637789890       -3.8622704457
  O        -0.1984537252       -7.2110690041       -1.4738993509
  O        -0.6878202836       -7.3962388704       -0.1114828240
  O        -0.3016456757       -6.0651020841       -0.5856049463
  O         5.0268875980       -4.5418385279        0.3057611976
  O         3.9509315907       -3.6536030411       -0.0986366852
  O         3.8644683582       -4.3484515009        1.1719012594
  O        -1.9854026403       -6.0243076708       -3.3570695351
  O        -3.0487130498       -5.1444511729       -3.8487380933
  O        -1.7780858021       -5.2314661529       -4.5469297855
  O        -1.2864964265       -2.6729280183       -5.6498066326
  O        -1.7766312840       -3.5556024922       -6.7121346113
  O        -1.4804256765       -2.1710799200       -7.0086686950
  O         0.2966519352        4.2505424985        2.9550409539
  O         0.3950926186        3.4655981044        4.1633811952
  O         0.4936287171        4.9211968281        4.2367259627
  O         4.1205426602       -5.9197019616       -2.0900688540
  O         2.7729107491       -6.2230265425       -2.5653442457
  O         3.4628115188       -5.0431885260       -3.0556707471
  O         2.9662404227       -5.1276752578        3.7610369874
  O         1.6673397650       -5.5336913462        4.2514259536
  O         2.3769312171       -4.4557514039        4.9214720102
  O        -3.4610419323        5.8489797200        0.1943419725
  O        -4.5375493473        6.8135074058        0.0001242006
  O        -3.1669646422        7.1983841099       -0.2942576185
  O         3.9600619155        2.2710200322        5.7393073085
  O         2.7590520751        2.0743288178        4.9480944479
  O         2.6685390131        2.1733778199        6.4050965727
  O         3.7405266476        7.0130873261       -0.0016193598
  O         2.7665104804        5.9332837574        0.0991558141
  O         2.3806938073        7.2081191899       -0.4934334516
  O         3.4438794952        1.5762828125       -5.9336834199
  O         2.0917740567        1.8718714245       -6.4166362368
  O         2.8628880504        2.8828866976       -5.7255142463
  O        -0.6666210611        1.2131765925       -6.9171730585
  O        -1.8852653504        0.4975678726       -6.6162265286
  O        -1.8726812428        1.9604019661       -6.6188755097
  O        -5.8231570582       -3.5509615766       -1.7725002958
  O        -6.6158175149       -3.2585931388       -0.5923829723
  O        -5.3404253061       -2.5746372930       -0.7972056285
  O         2.3660890424       -0.9825958683       -6.5204329780
  O         1.5796539431       -2.1799598861       -6.7169258367
  O         0.9953612322       -0.8905911254       -7.0127293139
  O        -4.4413432353        1.0699772851       -5.4362791609
  O        -5.3345359941        1.8820890102       -4.6431215262
  O        -4.1494997237        2.4756599930       -5.2338914281
  O        -2.6674943474        0.7035969300        5.2662078562
  O        -2.7663302606        0.9891701590        6.7043725640
  O        -2.8643404277        2.0682221971        5.7321290257
  O         6.9048499785        0.2217023557       -4.2301184659
  O         5.8285873664        1.1806748617       -4.4555535563
  O         6.6259525714        1.2777681965       -3.2562980422
  O         3.7608260476        4.5369478975       -3.6545358285
  O         2.5583257159        5.2393022415       -4.0565763971
  O         3.2603441487        5.6356665893       -2.8558716828
  O         5.7329028765        3.6719588182       -1.6722220812
  O         4.5437434699        3.9496530625       -0.8885317775
  O         5.6348387158        4.9145227167       -0.9004026254
  O        -2.4719748988        5.2371680449       -4.0463716973
  O        -3.7398769832        4.6525346978       -3.6438710955
  O        -3.0669848382        5.6220009768       -2.7769795536
  O         1.9740856188       -4.5457613115       -5.3336836259
  O         0.7903399776       -4.8390519404       -6.1231295714
  O         1.0867269302       -5.6290967296       -4.9410385921
  O        -6.3252500738        3.0575849238       -1.0860070317
  O        -5.9287417056        3.2564121834       -2.4683646191
  O        -5.6261193387        4.2636024457       -1.4738890386
  O         6.5190430234        0.3112553199        4.7578615153
  O         6.2208161045        0.5007239947        3.3523042772
  O         6.2265644220        1.6511975663        4.2463191287
  O        -4.4326406960       -2.8678839932       -4.9412628523
  O        -5.3468321303       -1.7589802206       -5.0392648692
  O        -4.0616221245       -1.6949241410       -5.7235172997
  O         6.2275600111       -2.7706914565        2.0423586055
  O         5.5277425521       -3.3614702784        3.1644442779
  O         6.3274790443       -2.1717330363        3.3616184958
  O         4.3408251705        5.2387936136        2.4710117019
  O         3.8502224208        4.5462585734        3.6527589542
  O         3.0670806916        5.6244312284        3.0647896082
  O         0.1699239592        4.1587881534       -7.0848443814
  O        -0.8817770211        4.5390192143       -6.1372360273
  O         0.5002253745        4.8376496006       -5.8355848908
  O         0.3867409385       -3.9554919899        7.0982639144
  O        -0.4867585402       -4.9169694303        6.4207202356
  O        -0.2915085599       -3.5843491906        5.8547910540
  O        -6.1300353377        0.0964188534       -2.6689232529
  O        -7.1109259538       -0.9771705612       -2.7710670657
  O        -7.2074072434        0.1874037542       -3.6463348211
  O        -1.2775151109       -6.5109657881        3.0521592616
  O        -1.9848584461       -5.9207677726        4.1634109270
  O        -1.3819472566       -5.0535148460        3.1592723048
  O        -2.4689958701        5.0351946964        4.3470377070
  O        -3.7449269749        4.3541893522        4.1442531951
  O        -3.2666167893        5.3271727594        3.1677056303
  O        -5.6322230724        0.3102815930        5.0328908634
  O        -6.6375649584        0.8713188061        4.1437313249
  O        -5.5163643150        1.6829357222        4.5528882944
  O         4.5563372203       -1.6844877381        5.4307110369
  O         3.2534671748       -2.0767138185        5.9284776348
  O         3.6502097710       -0.6772656312        5.9276544239
  O         6.8389355814        2.3698934923        1.0818413251
  O         5.4300016157        2.0736167018        1.2833821501
  O         6.0227018522        3.2611879207        1.8797092052
  O         0.0004944794        5.4976312827       -2.2593676522
  O         0.1003981724        6.4255279771       -3.3727086313
  O        -0.2975491562        6.9157079389       -2.0710879039
  O        -5.4514783858       -1.6803291972        2.5716896029
  O        -6.7081922467       -2.1685450135        2.0117817434
  O        -6.6101323198       -1.8799665087        3.4365269630
  O         3.6455035793       -7.2097673589        0.5971314750
  O         2.5752444890       -6.9217344753        1.5418340234
  O         2.2835443552       -7.0119867044        0.1164215862
  O         0.7987393489       -1.1067721729        6.9140623951
  O        -0.5870590854       -0.6862403316        7.0128032588
  O         0.4869499357        0.3004641103        7.0120594352
  O         0.3680827880        6.7205592730        1.7605658799
  O        -1.0817069607        6.6188645065        1.8766052918
  O        -0.4828792465        7.0112922935        0.6133088292
  O        -0.1995003031        2.9662225285        7.0114731338
  O        -0.9921664699        4.1484863564        6.7170983461
  O         0.4245341743        4.2768453685        7.0146625744
  O        -4.8311896894        3.4367526698        1.3857968919
  O        -5.8215201647        3.3795019536        2.4521095629
  O        -5.7374823890        4.5495032256        1.5859418190
  O        -2.9682396288       -2.1694721397        6.0250698643
  O        -3.2634265836       -3.4557918891        5.4327355988
  O        -4.2368806470       -2.3760010053        5.3363631304
  O        -4.3592830738       -5.7061863329        2.3651391365
  O        -5.3210489211       -4.7536054776        1.7950086532
  O        -4.6441817528       -4.4555575789        3.0503924069
  O         6.4181052324       -2.9683331581       -1.3855500080
  O         5.6316573471       -3.3604469496       -2.5578791138
  O         6.4257181337       -2.1527690114       -2.5804796220
  C        -4.7434357647        6.5353078375        6.2945319581
  C        -5.4548172174        6.9771304308        5.1370041542
  C        -6.6139327806        6.2611142001        4.6933175126
  C        -7.0512786136        5.1036040031        5.4068727966
  C        -6.3357334095        4.6572468623        6.5655023909
  C        -5.1834664270        5.3734135845        7.0091743728
  C        -4.3868530235        4.8343084943        8.0628475477
  C        -3.2377674082        5.5454945534        8.5009142236
  C        -2.7911403306        6.7016266024        7.7762523678
  C        -3.5005914102        7.1484511207        6.6278673513
  C        -2.8741546397        8.0710856615        5.7171652116
  C        -3.5777310390        8.5063268044        4.5679556016
  C        -4.9119077067        8.0216195739        4.3320916472
  C        -5.6183950985        8.4528299442        3.1764630536
  C        -6.7848032560        7.7424570524        2.7369932743
  C        -7.2346568502        6.6004929014        3.4528524375
  C        -8.1694903458        5.6980315834        2.8303951640
  C        -8.5978009218        4.5471363608        3.5376530734
  C        -8.1023687737        4.3039032024        4.8674394751
  C        -8.5371747948        3.1530958384        5.5803557715
  C        -7.8244489763        2.7087953812        6.7437080319
  C        -6.6766500146        3.4184651824        7.1863544337
  C        -5.7731648325        2.7930880855        8.1141769533
  C        -4.6285879524        3.5023042789        8.5524976212
  C        -2.3762211317        4.9291683786        9.4708273950
  C        -1.2029481750        5.5915108593        9.8225695549
  C        -0.7604286003        6.7348760958        9.1001848708
  C        -1.4813733734        7.2321310368        8.0179782858
  C        -4.9943996366        9.4122727968        2.3106637720
  C        -5.6604401112        9.7735763346        1.1435004910
  C        -6.8157744440        9.0664615440        0.7038261726
  C        -7.3229583086        7.9906549834        1.4286323280
  C        -9.5001437544        2.2889947060        4.9613037372
  C        -9.8624986161        1.1237134507        5.6321912932
  C        -9.1602207984        0.6848126941        6.7905772258
  C        -8.0801556353        1.4055549232        7.2918147033
  C        -3.6726700658        1.3979791707        9.4701942213
  C        -4.8322132326        0.6840661574        9.0350229522
  C        -4.8334796740       -0.7493648237        9.0359611725
  C        -3.6750220996       -1.4625655928        9.4714046653
  C        -2.5115098768       -0.7455175090        9.9020680876
  C        -2.5097727832        0.6822735329        9.9020095936
  C        -1.3005917907        1.3844349781       10.1826922233
  C        -1.3027634594        2.8048631513       10.1874017867
  C        -2.4659183803        3.5244198923        9.7514711830
  C        -3.6183340487        2.8158125199        9.3120370289
  C        -5.9138103263        1.3985506442        8.4417422451
  C        -7.0623584973        0.6865658821        8.0036987888
  C        -7.0659456340       -0.7495602061        8.0088424916
  C        -5.9213198946       -1.4660576955        8.4533714165
  C        -5.7927042957       -2.8660895494        8.1437191867
  C        -4.6466058687       -3.5735302552        8.5813500681
  C        -3.6280910858       -2.8795836625        9.3236508561
  C        -2.4720244148       -3.5833654993        9.7563205212
  C        -1.3082935769       -2.8655174358       10.1902827828
  C        -1.3035125605       -1.4462714941       10.1862788416
  C        -0.0567887820       -0.7386171208       10.2906673176
  C        -0.0549415287        0.6763142591       10.2875837787
  C        -0.0524795839        3.4895786824       10.3535572381
  C        -0.0512765136        4.8793072537       10.2668474255
  C        -9.1640006861       -0.7404846931        6.7948879797
  C        -8.0890157856       -1.4664093913        7.3020820560
  C        -2.3842048661       -4.9893557451        9.4832993548
  C        -1.2157505126       -5.6538852898        9.8455836635
  C        -0.0639571123       -4.9411114358       10.2816365627
  C        -0.0615894443       -3.5520669299       10.3605986540
  C         3.5697280408        1.3914679704        9.4875069896
  C         4.7307257810        0.6757279941        9.0609523889
  C         4.7278050575       -0.7585223415        9.0630278978
  C         3.5638362027       -1.4681688770        9.4901151517
  C         2.4002015374       -0.7493442304        9.9162027067
  C         2.4023915773        0.6785071361        9.9135791313
  C         1.1933247346        1.3819655208       10.1887019449
  C         1.1972819440        2.8021871111       10.1916341400
  C         2.3643710127        3.5190331138        9.7620616674
  C         3.5222588470        2.8100181307        9.3352883134
  C         4.5419502058        3.4977384747        8.5872559255
  C         5.6891667570        2.7866933578        8.1544809530
  C         5.8188436368        1.3883951365        8.4745424360
  C         6.9617543349        0.6713168715        8.0271928874
  C         6.9556183004       -0.7653087395        8.0267596775
  C         5.8114002390       -1.4776747002        8.4776171029
  C         5.6721104407       -2.8742790921        8.1571136508
  C         4.5223353822       -3.5776165599        8.5877251524
  C         3.5092890752       -2.8841621374        9.3365894996
  C         2.3522264609       -3.5877838098        9.7662523694
  C         1.1890683659       -2.8680148836       10.1981238784
  C         1.1893318796       -1.4482566664       10.1942073064
  C         1.1031754006        5.5899215649        9.8285486070
  C         2.2751034316        4.9232509094        9.4785036400
  C         7.9887484858        1.3866231252        7.3212597400
  C         9.0637697889        0.6593484634        6.8171086749
  C         9.0554684681       -0.7660212774        6.8155033320
  C         7.9740976544       -1.4850776074        7.3166793573
  C         2.2599763288       -4.9934109438        9.4887222227
  C         1.0887151646       -5.6561211688        9.8473287988
  C         4.6475970107        6.5094545043        6.3025550543
  C         5.3644526925        6.9515934044        5.1500157782
  C         6.5277253832        6.2367006271        4.7163317465
  C         6.9712853752        5.0841215313        5.4356752967
  C         6.2541031679        4.6441749148        6.5965890954
  C         5.0941739427        5.3562826407        7.0282144581
  C         4.2973828794        4.8249158965        8.0851571713
  C         3.1398194349        5.5332602357        8.5077984297
  C         2.6910418401        6.6832069673        7.7761764449
  C         3.4013134013        7.1206867709        6.6262711501
  C         2.7792003049        8.0454125178        5.7156965954
  C         3.4902623177        8.4870616949        4.5749693646
  C         4.8247693610        7.9994796007        4.3458725843
  C         5.5349796431        8.4300779980        3.1944386501
  C         6.6992368638        7.7142556976        2.7593309657
  C         7.1464684284        6.5711926017        3.4752948305
  C         8.0786502778        5.6656191993        2.8574018943
  C         8.5179374190        4.5230058445        3.5696502271
  C         8.0282080160        4.2870037351        4.9039337813
  C         8.4665564120        3.1403975182        5.6211492997
  C         7.7460091764        2.6963989674        6.7828101543
  C         6.5965082904        3.4080749565        7.2231983129
  C         0.6634795751        6.7325444016        9.1022737690
  C         1.3847342173        7.2221589333        8.0171805069
  C         4.9174058052        9.3956004129        2.3296744570
  C         5.5857613824        9.7536853716        1.1632284401
  C         6.7345360850        9.0361567840        0.7263764964
  C         7.2377841671        7.9602027404        1.4534426266
  C         9.4210699371        2.2687742009        4.9968633714
  C         9.7705585034        1.0956805298        5.6603225077
  C        -0.7603927438        8.9712650103        4.7623342411
  C        -1.4716468825        9.4228056581        3.6103526961
  C        -0.7531627831        9.8755946478        2.4555196740
  C         0.6750563046        9.8710604586        2.4570828594
  C         1.3884868555        9.4112237629        3.6119786998
  C         0.6724358631        8.9639868340        4.7621127743
  C         1.3836739756        8.3651440487        5.8440008664
  C         0.6697640061        7.9242743376        6.9905452783
  C        -0.7642390787        7.9315397960        6.9914147131
  C        -1.4764427742        8.3801998588        5.8456285702
  C        -2.8865180178        9.2618389420        3.5561680149
  C        -3.5906092397        9.6959166790        2.4011064135
  C        -2.8721302316       10.1494895930        1.2447724542
  C        -1.4521669504       10.1633800958        1.2451753015
  C        -0.7427709392       10.2709030990       -0.0044001600
  C         0.6738120908       10.2688470496       -0.0025021980
  C         1.3785133065       10.1570983512        1.2493634148
  C         2.7988314772       10.1394576281        1.2542800870
  C         3.5142467444        9.6837629378        2.4131761936
  C         2.8038540090        9.2460918277        3.5625271113
  C        -4.9460940537       10.2102549562       -0.0081480086
  C        -3.5575123121       10.3050949549       -0.0066967846
  C         3.4869704870       10.2954421713        0.0042076222
  C         4.8752285563       10.1929362697        0.0085352674
  C         4.6373287646       -6.6453032209       -6.2430732882
  C         5.3530179387       -7.0909997421       -5.0902877045
  C         6.5055948404       -6.3656874345       -4.6391138302
  C         6.9423572265       -5.2049615308       -5.3468373188
  C         6.2254317018       -4.7593274700       -6.5048531365
  C         5.0718223303       -5.4755105661       -6.9477345487
  C         4.2786643152       -4.9388449319       -8.0044136029
  C         3.1358575911       -5.6560448304       -8.4484888922
  C         2.6969212193       -6.8275315815       -7.7423054821
  C         3.4069365197       -7.2772709212       -6.5959939589
  C         2.7859781945       -8.2149051989       -5.6966553119
  C         3.4910265567       -8.6484619318       -4.5465862994
  C         4.8220404276       -8.1540409467       -4.3012662214
  C         5.5289662627       -8.5805131717       -3.1437626518
  C         6.6841480456       -7.8547526565       -2.6930812583
  C         7.1256675705       -6.7033602842       -3.3998554215
  C         8.0580619800       -5.7976483155       -2.7780328419
  C         8.4996817256       -4.6531435029       -3.4857294615
  C         7.9994809154       -4.4093213077       -4.8127728253
  C         8.4315661274       -3.2568598965       -5.5235867946
  C         7.7170943900       -2.8127955588       -6.6852270263
  C         6.5682194144       -3.5224114744       -7.1280764200
  C         5.6696901200       -2.9010020285       -8.0651900773
  C         4.5249941518       -3.6101785437       -8.5022879158
  C         2.2768624767       -5.0366509571       -9.4164201899
  C         1.1109087737       -5.7052263324       -9.7797389049
  C         0.6708312388       -6.8600476896       -9.0737608695
  C         1.3933962026       -7.3732046354       -7.9992418948
  C         4.9049089052       -9.5384034699       -2.2745005511
  C         5.5646575699       -9.8870513174       -1.0989114348
  C         6.7157778219       -9.1741342564       -0.6595039743
  C         7.2180651710       -8.0964633024       -1.3837706505
  C         9.4001975867       -2.3948978523       -4.9088183503
  C         9.7618950865       -1.2282345711       -5.5768043474
  C         9.0549624194       -0.7887030060       -6.7306493391
  C         7.9732653330       -1.5092796565       -7.2296302194
  C         3.5799433063       -1.5083618586       -9.4412439985
  C         4.7335209109       -0.7927869029       -8.9936999889
  C         4.7359097967        0.6404421809       -8.9938583531
  C         3.5812348516        1.3544063272       -9.4374579549
  C         2.4222338785        0.6360299808       -9.8801775406
  C         2.4225635952       -0.7924762988       -9.8870254517
  C         1.2123936274       -1.4942264774      -10.1703782932
  C         1.2112321059       -2.9157308023      -10.1575439928
  C         2.3695952348       -3.6337702995       -9.7066478499
  C         3.5235049188       -2.9253339201       -9.2749411433
  C         5.8116238216       -1.5062403690       -8.3928378642
  C         6.9558571472       -0.7925908438       -7.9440588568
  C         6.9619584552        0.6426687116       -7.9504254933
  C         5.8189028329        1.3571264045       -8.4011668525
  C         5.6866673783        2.7546130248       -8.0868427821
  C         4.5429720835        3.4628736289       -8.5278663320
  C         3.5318243169        2.7714521597       -9.2821335821
  C         2.3767617035        3.4768226838       -9.7152578223
  C         1.2158316749        2.7594392475      -10.1578154714
  C         1.2126485014        1.3378776077      -10.1625652604
  C        -0.0340068054        0.6296228780      -10.2727881232
  C        -0.0349250557       -0.7862566089      -10.2740121637
  C        -0.0386951183       -3.6026372496      -10.3168560347
  C        -0.0383643205       -4.9921351069      -10.2241092804
  C         9.0636927455        0.6355478390       -6.7382302686
  C         7.9869629767        1.3598209475       -7.2447002799
  C         2.2877823423        4.8831632545       -9.4390990746
  C         1.1212128916        5.5510577613       -9.8008665173
  C        -0.0291852914        4.8388790862      -10.2412924591
  C        -0.0309352685        3.4486305154      -10.3241439980
  C        -0.7647684519       -9.0919845322       -4.7388904424
  C        -1.4789513815       -9.5273902341       -3.5807317538
  C        -0.7659915218       -9.9767559906       -2.4196542031
  C         0.6632591166       -9.9825175045       -2.4170593935
  C         1.3805764207       -9.5451826252       -3.5792686230
  C         0.6695921713       -9.1047489741       -4.7400380709
  C         1.3876892875       -8.5311211325       -5.8320298992
  C         0.6746869270       -8.0853270384       -6.9800257922
  C        -0.7626407748       -8.0682916194       -6.9760336877
  C        -1.4778371509       -8.5014705950       -5.8264173480
  C        -2.8734585721       -8.1761393585       -5.6960630205
  C        -3.5788987432       -8.6038732835       -4.5459108646
  C        -2.8931108469       -9.3605761263       -3.5307322952
  C        -3.6004149102       -9.7851949551       -2.3731582537
  C        -2.8874982073      -10.2326843399       -1.2105726078
  C        -1.4687421897      -10.2546666187       -1.2084589387
  C        -0.7642526722      -10.3598488795        0.0425509625
  C         0.6522959230      -10.3660119589        0.0448203256
  C         1.3613092933      -10.2656229239       -1.2034551324
  C         2.7808577279      -10.2592790064       -1.2020440413
  C         3.4998819923       -9.8196800360       -2.3661687351
  C         2.7974104027       -9.3937846281       -3.5279225338
  C        -0.7540872027       -6.8551601506       -9.0760235351
  C        -1.4781449220       -7.3531313516       -7.9966685220
  C        -5.0018513380       -9.4934725647       -2.2830447534
  C        -5.6708494189       -9.8500428526       -1.1157277155
  C        -4.9632685234      -10.2912049497        0.0371047943
  C        -3.5754860650      -10.3839614758        0.0390551435
  C         3.4637870726      -10.4190123868        0.0510367288
  C         4.8521272060      -10.3269366495        0.0529102597
  C        -5.1851630362       -5.4739520646       -7.0002920298
  C        -6.3388359602       -4.7550915936       -6.5593242668
  C        -7.0398621930       -5.1792179880       -5.3828878974
  C        -6.5954798722       -6.3282470989       -4.6604444265
  C        -5.4442540517       -7.0546078901       -5.1091479418
  C        -4.7368583587       -6.6257089039       -6.2731882210
  C        -3.4959666147       -7.2479516905       -6.6053441723
  C        -2.7841032447       -6.8079731805       -7.7533266194
  C        -3.2332766185       -5.6532234548       -8.4825978089
  C        -4.3899569953       -4.9424933291       -8.0587723132
  C        -4.6327219543       -3.6132735900       -8.5570831580
  C        -5.7773874455       -2.9020593053       -8.1203300618
  C        -6.6835109305       -3.5224402877       -7.1895080257
  C        -7.8205035311       -2.8013777358       -6.7328450308
  C        -8.5272859667       -3.2329663115       -5.5600195882
  C        -8.0885571674       -4.3768288721       -4.8418545070
  C        -8.5819301087       -4.6128518841       -3.5096281234
  C        -8.1408073329       -5.7524984025       -2.7948205181
  C        -7.2092443022       -6.6558449283       -3.4152460629
  C        -6.7696440298       -7.8030270899       -2.7024521436
  C        -5.6146132853       -8.5260467392       -3.1479453030
  C        -4.9064672455       -8.1030855726       -4.3052443627
  C        -1.1924010731       -5.7042110059       -9.7904920573
  C        -2.3671180881       -5.0381810769       -9.4487285751
  C        -8.0663550719       -1.4945002496       -7.2737745962