 &FCI NORB=  10,NELEC=14,MS2=0,
  ORBSYM=1,1,1,1,1,1,1,1,1,1,
  ISYM=1,
 &END
 0.5941800575630369    1    1    1    1
 -0.02599717831808679    2    1    1    1
 0.2251216667159198    2    1    2    1
 0.5739257133598193    2    2    1    1
 0.04215506063506982    2    2    2    1
 0.5918700041094207    2    2    2    2
 0.03171413661809985    3    1    1    1
 -0.006782694126417337    3    1    2    1
 0.02415290146156731    3    1    2    2
 0.03082911483391241    3    1    3    1
 -0.003810054548011852    3    2    1    1
 0.02258197475196034    3    2    2    1
 0.004023821032174943    3    2    2    2
 -0.001394178768080079    3    2    3    1
 0.01593073502401243    3    2    3    2
 0.3976712674747555    3    3    1    1
 0.004494631114597889    3    3    2    1
 0.3937276533801009    3    3    2    2
 -0.06233071681327413    3    3    3    1
 0.001848153365906324    3    3    3    2
 0.6389682504292769    3    3    3    3
 -0.06372226145508822    4    1    1    1
 0.01826795205228552    4    1    2    1
 -0.04174737629640251    4    1    2    2
 0.0008680531052284195    4    1    3    1
 -0.006517006530009817    4    1    3    2
 -0.03441482591073877    4    1    3    3
 0.06524144312948907    4    1    4    1
 0.04678624601041626    4    2    1    1
 0.01381706778910263    4    2    2    1
 0.04558830743673651    4    2    2    2
 -0.01069381179972101    4    2    3    1
 0.006034578972819124    4    2    3    2
 0.0449940266861155    4    2    3    3
 -0.0525617165838556    4    2    4    1
 0.05468373882699278    4    2    4    2
 0.001942219583763676    4    3    1    1
 -0.02787257536609753    4    3    2    1
 -0.0009659969672114849    4    3    2    2
 0.009306317472029023    4    3    3    1
 -0.0008036371273177086    4    3    3    2
 -0.03643622539925642    4    3    3    3
 0.01588862531870902    4    3    4    1
 -0.01956431004236784    4    3    4    2
 0.01864279756904389    4    3    4    3
 0.499786166996027    4    4    1    1
 -0.1737372916050263    4    4    2    1
 0.4533555544743705    4    4    2    2
 0.03957381959096425    4    4    3    1
 -0.03063756108909994    4    4    3    2
 0.3287511726280702    4    4    3    3
 0.02741197763141932    4    4    4    1
 -0.05777664835847442    4    4    4    2
 0.05709179179251465    4    4    4    3
 0.7406863633160564    4    4    4    4
 0.001170431308721255    5    1    1    1
 -0.0001536281853885608    5    1    2    1
 0.0006498066486214066    5    1    2    2
 -1.184988750062102e-05    5    1    3    1
 -0.0005288820536752018    5    1    3    2
 -0.000609447225386234    5    1    3    3
 -0.0002570332278588544    5    1    4    1
 0.0005704968011073429    5    1    4    2
 -9.498114230430562e-05    5    1    4    3
 0.0002337639360868331    5    1    4    4
 0.04388589092229715    5    1    5    1
 -0.0002868855838457721    5    2    1    1
 -0.0003551312919434565    5    2    2    1
 -0.0003854743115981955    5    2    2    2
 -0.0005752905376152323    5    2    3    1
 -0.0004017265679773172    5    2    3    2
 0.0003282749483827311    5    2    3    3
 0.000543522377371162    5    2    4    1
 -5.559671489688486e-05    5    2    4    2
 0.0001450792024556028    5    2    4    3
 0.0006447790577598366    5    2    4    4
 0.01471298398806163    5    2    5    1
 0.03724620983153636    5    2    5    2
 0.0004715866079569911    5    3    1    1
 -0.002013990654299621    5    3    2    1
 -0.0003318949619586442    5    3    2    2
 -0.00123172376701017    5    3    3    1
 -0.0001357702635127413    5    3    3    2
 0.005779189679710263    5    3    3    3
 -0.0005261101118338547    5    3    4    1
 0.0003678613831404281    5    3    4    2
 -0.0002711408108024057    5    3    4    3
 0.001235440676367727    5    3    4    4
 -0.003636669597970166    5    3    5    1
 0.001431791505239116    5    3    5    2
 0.01822182488689877    5    3    5    3
 -0.0007662200224588233    5    4    1    1
 0.00220248606296738    5    4    2    1
 -9.186771013036507e-05    5    4    2    2
 -0.0002377532428814481    5    4    3    1
 0.0003616834339433302    5    4    3    2
 2.641720544790971e-05    5    4    3    3
 -0.0003253165892545413    5    4    4    1
 0.0007201628971292615    5    4    4    2
 -0.0004658588873049773    5    4    4    3
 -0.003547744790161251    5    4    4    4
 -0.000298519155514924    5    4    5    1
 0.0001951709894671974    5    4    5    2
 0.001177931465749659    5    4    5    3
 0.008641949456980436    5    4    5    4
 0.4226053304099171    5    5    1    1
 0.06627410684780427    5    5    2    1
 0.4415463835488325    5    5    2    2
 0.005335907189787804    5    5    3    1
 0.008889501818763194    5    5    3    2
 0.3636417306529934    5    5    3    3
 -0.02468274419825225    5    5    4    1
 0.03167570721447906    5    5    4    2
 -0.01012568431390405    5    5    4    3
 0.3170192242503994    5    5    4    4
 0.0008889026586593679    5    5    5    1
 0.0002084654215920442    5    5    5    2
 -0.001008195510255244    5    5    5    3
 0.0009431461021535891    5    5    5    4
 0.4151854177903357    5    5    5    5
 0.005004364188403031    6    1    1    1
 -0.009953364321742276    6    1    2    1
 -0.01615329188986173    6    1    2    2
 0.0149490799132447    6    1    3    1
 -0.01422943325528687    6    1    3    2
 -0.0007343946302544949    6    1    3    3
 -0.004823752169748939    6    1    4    1
 -0.00212612558722283    6    1    4    2
 -0.0002632681878906485    6    1    4    3
 0.008095229686529299    6    1    4    4
 -0.0007815316894461797    6    1    5    1
 0.0008836589402020894    6    1    5    2
 0.0004167679801253501    6    1    5    3
 -2.160998940515067e-05    6    1    5    4
 -0.007324339981783848    6    1    5    5
 0.06203845019487797    6    1    6    1
 -0.01036105191375861    6    2    1    1
 -0.04414355802653771    6    2    2    1
 -0.01323996041514117    6    2    2    2
 -0.01839027415595441    6    2    3    1
 0.004171375149408164    6    2    3    2
 0.01359888298264122    6    2    3    3
 -0.0005735338628420352    6    2    4    1
 -0.002385964092603066    6    2    4    2
 0.0021987954804366    6    2    4    3
 0.02291085262529039    6    2    4    4
 0.00127998518827632    6    2    5    1
 0.0003303984483948616    6    2    5    2
 0.0008248589313586553    6    2    5    3
 -0.0003404164594886191    6    2    5    4
 -0.01782785015615291    6    2    5    5
 -0.04986815983194209    6    2    6    1
 0.05936327693175057    6    2    6    2
 0.03398038321810962    6    3    1    1
 -0.04184998453654204    6    3    2    1
 0.01856933896242876    6    3    2    2
 0.02184299578138744    6    3    3    1
 -0.00568731511433068    6    3    3    2
 -0.05493211908225555    6    3    3    3
 -0.00111503383637155    6    3    4    1
 -0.009232701218341355    6    3    4    2
 0.01732994799794783    6    3    4    3
 0.06306480236925974    6    3    4    4
 0.0005429377600256714    6    3    5    1
 0.0003057310944704274    6    3    5    2
 -0.001048287637515886    6    3    5    3
 -0.0006356305521787803    6    3    5    4
 -0.005891191347484814    6    3    5    5
 0.01636114000872044    6    3    6    1
 -0.009173903299226613    6    3    6    2
 0.03281256729434043    6    3    6    3
 -0.004528535083284461    6    4    1    1
 0.002746102142021728    6    4    2    1
 -0.00554553138115878    6    4    2    2
 0.0004791397050506918    6    4    3    1
 -0.003299511476463859    6    4    3    2
 0.01127463220186679    6    4    3    3
 -1.809560822993694e-05    6    4    4    1
 0.003684863305157443    6    4    4    2
 0.004637509705425364    6    4    4    3
 -0.008476437634514175    6    4    4    4
 0.0001124865171952161    6    4    5    1
 0.0001046230413731086    6    4    5    2
 -7.946296875421921e-05    6    4    5    3
 -0.0003460748701201649    6    4    5    4
 -0.0006678672737486136    6    4    5    5
 0.02843256485653937    6    4    6    1
 -0.02840804561654174    6    4    6    2
 0.007670038669724425    6    4    6    3
 0.05153649187672761    6    4    6    4
 -0.002191325637972502    6    5    1    1
 0.004265846909481035    6    5    2    1
 -0.0004208604498366154    6    5    2    2
 0.0004055014994885037    6    5    3    1
 0.0007173123681491185    6    5    3    2
 -0.002697717644803616    6    5    3    3
 0.0006068930188777632    6    5    4    1
 8.68144495570346e-05    6    5    4    2
 -0.0004283421529206551    6    5    4    3
 -0.004630762191877155    6    5    4    4
 -0.001482736383535003    6    5    5    1
 -0.003625068417149908    6    5    5    2
 -0.002342321059626024    6    5    5    3
 -0.0004766857331826278    6    5    5    4
 0.001342861619998935    6    5    5    5
 -0.0007474827253384147    6    5    6    1
 -0.000929109001789952    6    5    6    2
 -0.0007019916154900079    6    5    6    3
 -0.0003135423159804128    6    5    6    4
 0.00681866323408549    6    5    6    5
 0.5132642846191829    6    6    1    1
 -0.1817753825592368    6    6    2    1
 0.4665425819752585    6    6    2    2
 0.04031887029136882    6    6    3    1
 -0.02739598538987875    6    6    3    2
 0.3399638647978075    6    6    3    3
 0.008236330670633245    6    6    4    1
 -0.03519391731964228    6    6    4    2
 0.04234608597939134    6    6    4    3
 0.6409245508679802    6    6    4    4
 -4.437592024456179e-05    6    6    5    1
 -1.967767648642727e-05    6    6    5    2
 0.001178352103580811    6    6    5    3
 -0.002752719294739431    6    6    5    4
 0.3232813532531572    6    6    5    5
 0.008198959755388329    6    6    6    1
 0.0256787061349442    6    6    6    2
 0.07167919686237273    6    6    6    3
 -0.007815015170944288    6    6    6    4
 -0.004864944564546664    6    6    6    5
 0.6983381439640057    6    6    6    6
 -4.981236590632695e-05    7    1    1    1
 -0.0003597347610601505    7    1    2    1
 -0.0009838278040025272    7    1    2    2
 0.0006245556461478107    7    1    3    1
 -0.0004417974247618327    7    1    3    2
 0.0003383167460112435    7    1    3    3
 5.330106372002032e-06    7    1    4    1
 -0.0003791576436640723    7    1    4    2
 -8.018257300558128e-06    7    1    4    3
 0.0002094882822117638    7    1    4    4
 0.02118853580856988    7    1    5    1
 -0.02895404379730523    7    1    5    2
 -0.002139377595484471    7    1    5    3
 0.001430263981477431    7    1    5    4
 -0.0005322752735579685    7    1    5    5
 0.0003121517739290672    7    1    6    1
 -0.0006213099998354127    7    1    6    2
 0.000296326608465802    7    1    6    3
 0.0008864974140168837    7    1    6    4
 0.003046347993388907    7    1    6    5
 0.0002468303733274418    7    1    6    6
 0.05217825103913008    7    1    7    1
 -0.0003861631817040136    7    2    1    1
 -0.002143959020808238    7    2    2    1
 -0.0003996306710596559    7    2    2    2
 -0.0004585035067230405    7    2    3    1
 0.0004390419557384619    7    2    3    2
 0.0003988697002076772    7    2    3    3
 -0.0003796603397905257    7    2    4    1
 -0.0001172526079960971    7    2    4    2
 9.84218459499113e-05    7    2    4    3
 0.001076078307426252    7    2    4    4
 -0.03781389715547293    7    2    5    1
 0.001157303275532642    7    2    5    2
 -0.002218759516738884    7    2    5    3
 -0.005262093559664131    7    2    5    4
 -0.001096309822522111    7    2    5    5
 -0.0005399043800882522    7    2    6    1
 0.0005026669324424808    7    2    6    2
 -0.0002315617665852909    7    2    6    3
 -0.000783603766808802    7    2    6    4
 0.002906251044999858    7    2    6    5
 0.001411383003176125    7    2    6    6
 -0.03527723415667382    7    2    7    1
 0.0481327626287101    7    2    7    2
 0.001184964939031813    7    3    1    1
 -0.0005266777543203214    7    3    2    1
 0.001047499143081194    7    3    2    2
 0.001856169835940934    7    3    3    1
 -0.0001317833308157167    7    3    3    2
 -0.00619248161571453    7    3    3    3
 0.0002896484566624566    7    3    4    1
 -0.0006789528447704545    7    3    4    2
 0.001013261279547429    7    3    4    3
 0.001966692634427879    7    3    4    4
 0.0009101934324314141    7    3    5    1
 -0.006183779844899527    7    3    5    2
 0.0008558274894272375    7    3    5    3
 0.003485665429237863    7    3    5    4
 0.0004986898648156921    7    3    5    5
 0.0003124447271837848    7    3    6    1
 -0.0007359761942891624    7    3    6    2
 0.001634154998552756    7    3    6    3
 -7.106347952635437e-06    7    3    6    4
 0.003108694754356457    7    3    6    5
 0.001969671253008455    7    3    6    6
 0.009090414526200002    7    3    7    1
 -0.005930416967048329    7    3    7    2
 0.006212322128732935    7    3    7    3
 0.0005233347717506812    7    4    1    1
 -0.001156826653225777    7    4    2    1
 -1.629104725916743e-05    7    4    2    2
 0.0001701138728445064    7    4    3    1
 -0.000348874259813196    7    4    3    2
 0.0008230683816760401    7    4    3    3
 -4.124581475418411e-05    7    4    4    1
 -7.493053200730212e-05    7    4    4    2
 0.0004270758982386538    7    4    4    3
 0.001619901165108143    7    4    4    4
 0.002510143070778877    7    4    5    1
 -0.008477073744452387    7    4    5    2
 0.004428177898788238    7    4    5    3
 0.01527392929938136    7    4    5    4
 -0.0006958051895362349    7    4    5    5
 0.0009658812298943083    7    4    6    1
 -0.0005545468520605217    7    4    6    2
 0.0003118139093075113    7    4    6    3
 0.0009195919585325256    7    4    6    4
 -0.0003169603142933985    7    4    6    5
 0.001270926548391175    7    4    6    6
 0.01510859846103224    7    4    7    1
 -0.01465505105785893    7    4    7    2
 0.007475155583562806    7    4    7    3
 0.03410464355080697    7    4    7    4
 0.06069716377296624    7    5    1    1
 -0.1228608629234002    7    5    2    1
 0.01729166013063465    7    5    2    2
 0.00611318064723636    7    5    3    1
 -0.01735969920941767    7    5    3    2
 0.01862665035191783    7    5    3    3
 -0.005677603387448028    7    5    4    1
 -0.01581956227277426    7    5    4    2
 0.01977292746137056    7    5    4    3
 0.1471113168415334    7    5    4    4
 -0.0003843295317542421    7    5    5    1
 -0.0001374422354779579    7    5    5    2
 0.001988538527782099    7    5    5    3
 -0.001964403986331476    7    5    5    4
 -0.03665888059923289    7    5    5    5
 0.009960264572867602    7    5    6    1
 0.02350380726827794    7    5    6    2
 0.02940001243439859    7    5    6    3
 -0.002471923000519322    7    5    6    4
 -0.003956415792529831    7    5    6    5
 0.1400129394000841    7    5    6    6
 0.0005114371072250014    7    5    7    1
 0.001623272476369205    7    5    7    2
 4.072995748578353e-05    7    5    7    3
 0.0008527260591366724    7    5    7    4
 0.1105421917649366    7    5    7    5
 0.001581310223682663    7    6    1    1
 -0.00428317604368557    7    6    2    1
 0.0005146291370827779    7    6    2    2
 0.0004356962412108641    7    6    3    1
 -0.0007832611822281881    7    6    3    2
 0.0007931568660493347    7    6    3    3
 0.001059511828971299    7    6    4    1
 -0.001472617891196488    7    6    4    2
 0.0008843759984941395    7    6    4    3
 0.006253819071771431    7    6    4    4
 0.003817638067334665    7    6    5    1
 0.005011443621188782    7    6    5    2
 0.00421202978874458    7    6    5    3
 -0.0004171006625349658    7    6    5    4
 -0.001895476525096554    7    6    5    5
 0.0003840036500075143    7    6    6    1
 0.0009198447461777622    7    6    6    2
 0.001265458299529403    7    6    6    3
 1.656415337227694e-05    7    6    6    4
 0.0095885562327206    7    6    6    5
 0.00690649249727305    7    6    6    6
 -0.001140460314039505    7    6    7    1
 -0.0007083923643964381    7    6    7    2
 0.003346002004340581    7    6    7    3
 -0.000577701869578082    7    6    7    4
 0.003228552906398211    7    6    7    5
 0.02343918941465863    7    6    7    6
 0.4765083065819135    7    7    1    1
 -0.09408402187176268    7    7    2    1
 0.4535737759762129    7    7    2    2
 0.02978125464983264    7    7    3    1
 -0.01389044261089566    7    7    3    2
 0.3284771828708243    7    7    3    3
 -0.006532135312003206    7    7    4    1
 -0.008432942114200516    7    7    4    2
 0.02509222171918895    7    7    4    3
 0.5168359718621417    7    7    4    4
 0.001069295400641612    7    7    5    1
 0.0008531185213914796    7    7    5    2
 0.0002937541090611055    7    7    5    3
 -0.001226116158980456    7    7    5    4
 0.3643901863111015    7    7    5    5
 0.001045873374585857    7    7    6    1
 0.00703377210684062    7    7    6    2
 0.03974926016677747    7    7    6    3
 -0.004779913026898174    7    7    6    4
 -0.001775267369361667    7    7    6    5
 0.5153618257394185    7    7    6    6
 -0.000343555006443532    7    7    7    1
 0.0002570268710968914    7    7    7    2
 0.002017740162153499    7    7    7    3
 0.0006250858075002532    7    7    7    4
 0.08552763326921071    7    7    7    5
 0.003585232690690008    7    7    7    6
 0.4894838024265111    7    7    7    7
 0.0001665728189688728    8    1    1    1
 -0.0003082457346158917    8    1    2    1
 -2.940778479989937e-05    8    1    2    2
 6.014028013021697e-05    8    1    3    1
 -2.294396528490779e-05    8    1    3    2
 -0.0002141679119503609    8    1    3    3
 -0.0001869418785719818    8    1    4    1
 -5.673412282414688e-05    8    1    4    2
 -1.482244417965424e-05    8    1    4    3
 0.0003998655823891    8    1    4    4
 -0.004720862472316438    8    1    5    1
 -0.007308308589801492    8    1    5    2
 0.01222417438807648    8    1    5    3
 0.01080063032535338    8    1    5    4
 -0.0001528436021692874    8    1    5    5
 -0.0004377500644012589    8    1    6    1
 0.001178771723615448    8    1    6    2
 -0.0005419859081568619    8    1    6    3
 -0.00130971864682283    8    1    6    4
 -0.002594775388454017    8    1    6    5
 0.0002688069540042314    8    1    6    6
 0.007478562729878966    8    1    7    1
 -0.01496460149851533    8    1    7    2
 0.007392539871770049    8    1    7    3
 0.0181281550788079    8    1    7    4
 8.585111382036491e-05    8    1    7    5
 0.0001984228875651203    8    1    7    6
 4.868194286156084e-05    8    1    7    7
 0.03305987979614303    8    1    8    1
 -0.0001627957484762078    8    2    1    1
 -0.000378647547286373    8    2    2    1
 -0.0004733218942444217    8    2    2    2
 -0.0001521557817939783    8    2    3    1
 -0.0001956090993660294    8    2    3    2
 0.0004855547134151964    8    2    3    3
 -0.0001567384553222207    8    2    4    1
 0.0001030632080520898    8    2    4    2
 2.418460954535001e-05    8    2    4    3
 -1.543865519704779e-05    8    2    4    4
 -0.008235083057881763    8    2    5    1
 0.01102441015988457    8    2    5    2
 0.0005640479132909554    8    2    5    3
 -0.005704752809542526    8    2    5    4
 -0.000163128909636359    8    2    5    5
 0.001658951493697484    8    2    6    1
 -0.0008961987935928006    8    2    6    2
 0.0004131573430619324    8    2    6    3
 0.001027280058499292    8    2    6    4
 -0.002161804442892639    8    2    6    5
 -5.857010454142448e-05    8    2    6    6
 -0.02317521126153535    8    2    7    1
 0.01444004394244034    8    2    7    2
 -0.006876758935569061    8    2    7    3
 -0.01503964039041544    8    2    7    4
 0.0002730015375110324    8    2    7    5
 0.0007662155877062886    8    2    7    6
 -4.495284636349579e-05    8    2    7    7
 -0.007078055198906491    8    2    8    1
 0.0203591360303002    8    2    8    2
 0.0004273880977132879    8    3    1    1
 -0.0007110557777325844    8    3    2    1
 -3.072903963891541e-05    8    3    2    2
 -0.0007435498181513846    8    3    3    1
 -6.635119958377434e-05    8    3    3    2
 0.002198854317432468    8    3    3    3
 -0.0003380625881047203    8    3    4    1
 0.0003653369032281454    8    3    4    2
 -0.000255513342093198    8    3    4    3
 0.0003668241995398063    8    3    4    4
 0.01925263057624741    8    3    5    1
 0.0009124289554677568    8    3    5    2
 -0.01412562800363492    8    3    5    3
 0.0003666036194251703    8    3    5    4
 -0.0004270818869936357    8    3    5    5
 -0.0009937571578271279    8    3    6    1
 0.001227449723589763    8    3    6    2
 0.0001842863036156617    8    3    6    3
 -0.0001633058518191266    8    3    6    4
 0.001789253753770369    8    3    6    5
 1.638471692219453e-05    8    3    6    6
 0.01419846329842461    8    3    7    1
 -0.01469209736483031    8    3    7    2
 -0.00239352294310697    8    3    7    3
 0.002899406348836995    8    3    7    4
 0.0008165981187251372    8    3    7    5
 0.001416647080359239    8    3    7    6
 0.000215552010944355    8    3    7    7
 -0.01008954454717383    8    3    8    1
 -0.005983239402540474    8    3    8    2
 0.02628226577912047    8    3    8    3
 -0.0004491763110733738    8    4    1    1
 2.503727575247974e-05    8    4    2    1
 -0.0001845189846477269    8    4    2    2
 -0.0001297755830623017    8    4    3    1
 9.628140062013075e-05    8    4    3    2
 -0.0004505013519843633    8    4    3    3
 0.0004244489348135281    8    4    4    1
 -0.0002072060328451628    8    4    4    2
 2.600868393156267e-05    8    4    4    3
 -0.0001201984927352324    8    4    4    4
 0.01995349454496356    8    4    5    1
 -0.008500510861424383    8    4    5    2
 -0.0004737939123588509    8    4    5    3
 0.006434277914078441    8    4    5    4
 2.025660128483325e-05    8    4    5    5
 -0.001990339255579184    8    4    6    1
 0.001646022835505015    8    4    6    2
 -0.0003198415295872503    8    4    6    3
 -0.001512548801489522    8    4    6    4
 0.0003461644822027846    8    4    6    5
 -0.0001141284667647982    8    4    6    6
 0.02696746674765222    8    4    7    1
 -0.02532236098658764    8    4    7    2
 0.005158490546623679    8    4    7    3
 0.02201908956460389    8    4    7    4
 -0.0005885830240359441    8    4    7    5
 0.000107979454261682    8    4    7    6
 0.0001487592282591609    8    4    7    7
 0.002995804897297995    8    4    8    1
 -0.01195114192124456    8    4    8    2
 0.01164295297107464    8    4    8    3
 0.03058628033016187    8    4    8    4
 -0.01596387464075658    8    5    1    1
 -0.007011146289973431    8    5    2    1
 -0.0007311260010336269    8    5    2    2
 0.02380821472619821    8    5    3    1
 -0.0005426608277967307    8    5    3    2
 -0.06854204590422563    8    5    3    3
 0.03015969812787393    8    5    4    1
 -0.02486372569603947    8    5    4    2
 0.01265017420091923    8    5    4    3
 0.02578582446542977    8    5    4    4
 0.000242149980967558    8    5    5    1
 0.0002077283810107175    8    5    5    2
 -0.001985113420985086    8    5    5    3
 -7.45894198885794e-05    8    5    5    4
 0.001202734666590295    8    5    5    5
 -0.004419484713241481    8    5    6    1
 -0.007404626365378905    8    5    6    2
 0.01184917291735051    8    5    6    3
 -0.001690826760348145    8    5    6    4
 0.001851991342317235    8    5    6    5
 0.03033825507233761    8    5    6    6
 -0.0003141524136449482    8    5    7    1
 -0.0003087280762436824    8    5    7    2
 0.00170926873753173    8    5    7    3
 -0.0005246727983739702    8    5    7    4
 -0.01978388235291952    8    5    7    5
 0.0002530016396678525    8    5    7    6
 0.03066922352200238    8    5    7    7
 -0.0003862361885311015    8    5    8    1
 -0.0003547034196521238    8    5    8    2
 -0.0008534367621803221    8    5    8    3
 0.0004863121725017143    8    5    8    4
 0.06978028961078321    8    5    8    5
 -0.001956590257096421    8    6    1    1
 0.006952857841551881    8    6    2    1
 -0.000686066167088313    8    6    2    2
 -0.001610071698438562    8    6    3    1
 0.001374285572342191    8    6    3    2
 0.002721501034152755    8    6    3    3
 -0.002352251028859611    8    6    4    1
 0.002957133358291362    8    6    4    2
 -0.001861212089252597    8    6    4    3
 -0.0102944665788762    8    6    4    4
 -0.004111622704424731    8    6    5    1
 -0.00287137059137628    8    6    5    2
 0.002259764690106389    8    6    5    3
 0.000132468758279248    8    6    5    4
 0.002456875294321368    8    6    5    5
 -0.0003223972559269156    8    6    6    1
 -0.001019541246274741    8    6    6    2
 -0.002442251638114679    8    6    6    3
 0.0002325501937483647    8    6    6    4
 0.006343187413378817    8    6    6    5
 -0.01180648684920363    8    6    6    6
 7.692154380298385e-05    8    6    7    1
 0.002643510877568505    8    6    7    2
 0.002515310825035152    8    6    7    3
 0.0001817265738848616    8    6    7    4
 -0.004437464492432859    8    6    7    5
 0.01318714113825815    8    6    7    6
 -0.004700185581292592    8    6    7    7
 0.002245337454961543    8    6    8    1
 0.000757653894075286    8    6    8    2
 -0.001515375119018849    8    6    8    3
 -0.001122199318589381    8    6    8    4
 -0.003066027157917956    8    6    8    5
 0.0117506212906684    8    6    8    6
 0.03114930217761281    8    7    1    1
 -0.103466606677247    8    7    2    1
 0.01032300764552226    8    7    2    2
 0.02224203398601561    8    7    3    1
 -0.02011738352770667    8    7    3    2
 -0.03351215981554408    8    7    3    3
 0.03143479142422151    8    7    4    1
 -0.04218045627507024    8    7    4    2
 0.0267248920909737    8    7    4    3
 0.1517830716158632    8    7    4    4
 -0.0003865159786688967    8    7    5    1
 7.969430060897855e-05    8    7    5    2
 0.0008172041056543543    8    7    5    3
 -0.00167917961802496    8    7    5    4
 -0.03647728580011631    8    7    5    5
 0.006226918323210377    8    7    6    1
 0.01378171332595816    8    7    6    2
 0.03142754908402669    8    7    6    3
 -0.002997773997203242    8    7    6    4
 -0.002165671867223458    8    7    6    5
 0.1455376143213198    8    7    6    6
 0.0002072886134906769    8    7    7    1
 0.0009120112709433645    8    7    7    2
 0.001203404301186428    8    7    7    3
 0.0007879388606815998    8    7    7    4
 0.07964929159641601    8    7    7    5
 0.00338209287534488    8    7    7    6
 0.09212756713109667    8    7    7    7
 0.0003457119480522862    8    7    8    1
 3.028756062581899e-05    8    7    8    2
 -0.0004408271085908464    8    7    8    3
 5.473133175853728e-05    8    7    8    4
 0.03827165498965371    8    7    8    5
 -0.006833668352901675    8    7    8    6
 0.110039125092814    8    7    8    7
 0.4990028265133755    8    8    1    1
 -0.03933173498816556    8    8    2    1
 0.4747989104338661    8    8    2    2
 -0.003453461584658351    8    8    3    1
 -0.008853664456718249    8    8    3    2
 0.4333884461000193    8    8    3    3
 -0.03678557781699502    8    8    4    1
 0.02391599197094075    8    8    4    2
 0.005005559955016267    8    8    4    3
 0.4686941255192444    8    8    4    4
 0.0003211968194595004    8    8    5    1
 -9.163686765854698e-05    8    8    5    2
 0.001327366459089078    8    8    5    3
 -0.0006732549449758797    8    8    5    4
 0.3972703907952417    8    8    5    5
 0.002334274933018927    8    8    6    1
 0.007559146004478835    8    8    6    2
 0.01426963044316994    8    8    6    3
 -0.00159546018009708    8    8    6    4
 -0.003648420712986655    8    8    6    5
 0.4542810370306891    8    8    6    6
 9.903126183879107e-05    8    8    7    1
 0.0003233380587475861    8    8    7    2
 -0.0006314973178491532    8    8    7    3
 0.0007019616488082402    8    8    7    4
 0.07251484296159244    8    8    7    5
 -0.0001564637709724184    8    8    7    6
 0.4443499514636116    8    8    7    7
 0.0001705878148927612    8    8    8    1
 0.0002124432488644353    8    8    8    2
 0.001242013150193122    8    8    8    3
 -0.0005550257136345087    8    8    8    4
 -0.04964059196995089    8    8    8    5
 -0.0009695196212338593    8    8    8    6
 0.0202922328106396    8    8    8    7
 0.5216832454910865    8    8    8    8
 -0.0007281204858858347    9    1    1    1
 0.0229903720191978    9    1    2    1
 0.02764543343929209    9    1    2    2
 0.003749998827341668    9    1    3    1
 0.008862231424111163    9    1    3    2
 -0.009144134385543524    9    1    3    3
 0.01438981198490764    9    1    4    1
 0.001718158961805107    9    1    4    2
 0.007521103424932286    9    1    4    3
 -0.01130940339027454    9    1    4    4
 -0.000170975047501031    9    1    5    1
 -3.560059014547379e-05    9    1    5    2
 -0.0006820494737710709    9    1    5    3
 0.0006510126361259401    9    1    5    4
 0.01818589172552887    9    1    5    5
 -0.005501514233739561    9    1    6    1
 -0.01721896253884273    9    1    6    2
 0.001747225327271646    9    1    6    3
 0.01228162781179996    9    1    6    4
 0.001363261638951503    9    1    6    5
 0.001202892401635133    9    1    6    6
 -0.0002228725792721504    9    1    7    1
 -0.0009247923490916583    9    1    7    2
 0.000758216205486828    9    1    7    3
 0.0004284903476791868    9    1    7    4
 -0.02718829661823962    9    1    7    5
 -0.0003074301684315573    9    1    7    6
 0.01013022884617136    9    1    7    7
 -0.0002006149270195674    9    1    8    1
 -0.0003131504284306359    9    1    8    2
 -0.0007125270320533877    9    1    8    3
 0.0002971813366555369    9    1    8    4
 0.03329970656177694    9    1    8    5
 -0.0002509162577238025    9    1    8    6
 -0.0003141156014745419    9    1    8    7
 -0.02027703116850953    9    1    8    8
 0.05899767021090767    9    1    9    1
 0.001148930105806078    9    2    1    1
 0.07206037223827415    9    2    2    1
 0.03627654716016253    9    2    2    2