 &FCI NORB=  17,NELEC=26,MS2=0,
  ORBSYM=1,1,1,1,1,1,1,1,1,1,1,1,1,1,1,1,1,
  ISYM=1,
 &END
 0.5450517935761994    1    1    1    1
 0.006396567296067246    2    1    1    1
 0.2281018634784606    2    1    2    1
 0.5252540300798533    2    2    1    1
 -0.04398969865972127    2    2    2    1
 0.5382233265835688    2    2    2    2
 -0.007034576559838088    3    1    1    1
 0.006719178979184626    3    1    2    1
 -0.02353226776900683    3    1    2    2
 0.02366516566941475    3    1    3    1
 0.01269862596883968    3    2    1    1
 -0.04596084125155883    3    2    2    1
 0.01350184758096201    3    2    2    2
 0.01015182453402005    3    2    3    1
 0.02233074601699295    3    2    3    2
 0.2894932611071639    3    3    1    1
 0.01826051080777934    3    3    2    1
 0.2755315249552687    3    3    2    2
 0.02769133535642011    3    3    3    1
 -0.00134109176457128    3    3    3    2
 0.4347408435553687    3    3    3    3
 -0.0423990178529292    4    1    1    1
 -0.01110459296697195    4    1    2    1
 -0.007914322536196552    4    1    2    2
 -0.0329240007157229    4    1    3    1
 -0.02340269881852211    4    1    3    2
 -0.01764336276007702    4    1    3    3
 0.06749828243287481    4    1    4    1
 -0.01944127924059898    4    2    1    1
 0.05018426220554624    4    2    2    1
 -0.0110162178587787    4    2    2    2
 -0.02552921290073978    4    2    3    1
 -0.03408490483684268    4    2    3    2
 -0.01073091983502049    4    2    3    3
 0.04942861176096301    4    2    4    1
 0.06097842445853502    4    2    4    2
 -0.1122597708648094    4    3    1    1
 -0.06153744903040415    4    3    2    1
 -0.1013754149771895    4    3    2    2
 0.0150876724221669    4    3    3    1
 0.01104337788307607    4    3    3    2
 0.0668108345060679    4    3    3    3
 0.005169027084140975    4    3    4    1
 -0.02102094649705982    4    3    4    2
 0.1221444041212093    4    3    4    3
 0.4270231523673038    4    4    1    1
 0.118714353438849    4    4    2    1
 0.3945865946321938    4    4    2    2
 0.003479194438105248    4    4    3    1
 -0.02016143313539247    4    4    3    2
 0.3412792196702349    4    4    3    3
 -0.02427579243843448    4    4    4    1
 0.02183136500572895    4    4    4    2
 -0.08336671991308559    4    4    4    3
 0.4581489666857506    4    4    4    4
 -0.01680313009372703    5    1    1    1
 -0.006934556274462198    5    1    2    1
 -0.01126907751242202    5    1    2    2
 -0.002450535202141003    5    1    3    1
 -0.002570882019772791    5    1    3    2
 -0.002615543216533253    5    1    3    3
 0.00941539097263154    5    1    4    1
 0.005081125826920783    5    1    4    2
 0.00481487004861436    5    1    4    3
 -0.01292878583062407    5    1    4    4
 0.02402293497703743    5    1    5    1
 -0.006850992668459506    5    2    1    1
 -0.007540765828274197    5    2    2    1
 -0.003333066240275673    5    2    2    2
 -0.004574829139073354    5    2    3    1
 -0.001520304476477676    5    2    3    2
 -0.004627204415513352    5    2    3    3
 0.007995858587488448    5    2    4    1
 0.005814333553339684    5    2    4    2
 0.001413929360591392    5    2    4    3
 -0.007497401934754632    5    2    4    4
 0.0008036936114677665    5    2    5    1
 0.01401850315484218    5    2    5    2
 0.004124840447273801    5    3    1    1
 -0.01338879096533022    5    3    2    1
 0.005582216893547351    5    3    2    2
 0.001606884028508865    5    3    3    1
 0.003883237465599439    5    3    3    2
 -0.01147674525863408    5    3    3    3
 -0.002874453706294898    5    3    4    1
 -0.005416318417903384    5    3    4    2
 -0.008073616544170464    5    3    4    3
 -0.01125584177070257    5    3    4    4
 0.007815546529797553    5    3    5    1
 0.001072601219554237    5    3    5    2
 0.01362344468960781    5    3    5    3
 0.02644498391809708    5    4    1    1
 0.02055390377778814    5    4    2    1
 0.02166709422805167    5    4    2    2
 -0.002461648462771783    5    4    3    1
 -0.00402860108591957    5    4    3    2
 -0.008040586277833701    5    4    3    3
 -0.002516369573489228    5    4    4    1
 0.00533639698552351    5    4    4    2
 -0.02411327855988698    5    4    4    3
 0.0248504111771384    5    4    4    4
 -0.009210034970586534    5    4    5    1
 -0.003099064685325919    5    4    5    2
 -0.005555696617076397    5    4    5    3
 0.0139432797476795    5    4    5    4
 0.3506864893705967    5    5    1    1
 -0.01018434542602892    5    5    2    1
 0.3344709427663111    5    5    2    2
 0.01539657683018291    5    5    3    1
 0.01285391070424954    5    5    3    2
 0.2663682200441867    5    5    3    3
 -0.03742320198773233    5    5    4    1
 -0.02464032406393603    5    5    4    2
 -0.04304057201304487    5    5    4    3
 0.2982514853827432    5    5    4    4
 0.02364332565633758    5    5    5    1
 -0.007012241202875231    5    5    5    2
 0.03869057224432015    5    5    5    3
 -0.009136924466243965    5    5    5    4
 0.4835723966586696    5    5    5    5
 0.04388415300946566    6    1    1    1
 -0.01889312328665843    6    1    2    1
 0.03372323520961841    6    1    2    2
 -0.004812166551904921    6    1    3    1
 -0.002946648841250662    6    1    3    2
 0.004143892145948607    6    1    3    3
 -0.003330440196328745    6    1    4    1
 0.007074621275743766    6    1    4    2
 -0.004817265978320722    6    1    4    3
 0.01155986634141341    6    1    4    4
 0.003918066426423464    6    1    5    1
 0.002466652254802541    6    1    5    2
 0.001532424830239083    6    1    5    3
 0.001093038755176692    6    1    5    4
 0.02013232923849203    6    1    5    5
 0.04853550747092248    6    1    6    1
 -0.03279473217589701    6    2    1    1
 -0.009608979170169609    6    2    2    1
 -0.02218829485856946    6    2    2    2
 -0.01135166584356336    6    2    3    1
 -0.0008859317645815434    6    2    3    2
 -0.01971263954299596    6    2    3    3
 0.0200800609739326    6    2    4    1
 0.002031451396129272    6    2    4    2
 0.007240268709208955    6    2    4    3
 -0.02897010752861594    6    2    4    4
 0.00284440627131935    6    2    5    1
 0.006980233680950571    6    2    5    2
 -0.0001397761961541258    6    2    5    3
 -0.003005001058734205    6    2    5    4
 -0.02580146515893823    6    2    5    5
 -0.01176798797884997    6    2    6    1
 0.05476586745601189    6    2    6    2
 -0.01837260358652982    6    3    1    1
 -0.0269795634844601    6    3    2    1
 -0.009202047717775417    6    3    2    2
 -0.003022052858496015    6    3    3    1
 0.004704201067315139    6    3    3    2
 -0.003875913531312343    6    3    3    3
 0.006833884975643969    6    3    4    1
 -0.00522343454007411    6    3    4    2
 0.01791349631342969    6    3    4    3
 -0.02378468195623163    6    3    4    4
 -0.000641016864020302    6    3    5    1
 0.001868992767830033    6    3    5    2
 -0.001127633766080505    6    3    5    3
 -0.004662727126318845    6    3    5    4
 -0.01492593320160984    6    3    5    5
 -0.006962896497100669    6    3    6    1
 0.01350933235246002    6    3    6    2
 0.01163614289731589    6    3    6    3
 -0.0006634193074492901    6    4    1    1
 0.04315213460561794    6    4    2    1
 -0.01032155644204617    6    4    2    2
 0.005476884768131966    6    4    3    1
 -0.008756802651738886    6    4    3    2
 0.0180273541070341    6    4    3    3
 -0.004694185126761249    6    4    4    1
 0.008589795738564242    6    4    4    2
 -0.006321114091152683    6    4    4    3
 0.02866419784949355    6    4    4    4
 0.0004712189380644278    6    4    5    1
 -0.002680173712908868    6    4    5    2
 -0.004023991299883362    6    4    5    3
 0.004485042778279575    6    4    5    4
 0.00234586153641074    6    4    5    5
 0.001661934104567211    6    4    6    1
 -0.0150392032387173    6    4    6    2
 -0.01353892652530259    6    4    6    3
 0.024268780255738    6    4    6    4
 0.01653211426037232    6    5    1    1
 0.0075688858226441    6    5    2    1
 0.01889046970826667    6    5    2    2
 -0.003734721285504406    6    5    3    1
 -0.0008220307436729341    6    5    3    2
 -0.001349412234590233    6    5    3    3
 0.002557826539850775    6    5    4    1
 0.00196207587432142    6    5    4    2
 -0.01081200357196817    6    5    4    3
 0.01501175477967559    6    5    4    4
 -0.004545501689005586    6    5    5    1
 -0.003030146091217899    6    5    5    2
 -0.004924866990644552    6    5    5    3
 0.004357196880128894    6    5    5    4
 -0.01997150257381441    6    5    5    5
 -0.007195783431997512    6    5    6    1
 0.0009838498743988885    6    5    6    2
 0.000349982538823375    6    5    6    3
 0.000234150982091441    6    5    6    4
 0.01265432582237748    6    5    6    5
 0.4316056901849588    6    6    1    1
 -0.06403015091313313    6    6    2    1
 0.4506815795858067    6    6    2    2
 -0.01639997724504792    6    6    3    1
 0.02794428942805222    6    6    3    2
 0.2479217324790438    6    6    3    3
 -0.009641018835900399    6    6    4    1
 -0.03268319966458803    6    6    4    2
 -0.06962202229328554    6    6    4    3
 0.3230331764413961    6    6    4    4
 -0.0156970695957531    6    6    5    1
 -0.0003764363845040978    6    6    5    2
 0.007193574374063802    6    6    5    3
 0.0119065167036325    6    6    5    4
 0.2972638544763608    6    6    5    5
 -0.01605713081632072    6    6    6    1
 0.02265217129110295    6    6    6    2
 0.01406776855984862    6    6    6    3
 -0.03704319174864119    6    6    6    4
 0.02562991854786697    6    6    6    5
 0.507379284022677    6    6    6    6
 -0.01512159060756065    7    1    1    1
 -0.02062909360460421    7    1    2    1
 0.001150343913309032    7    1    2    2
 0.003532347795381249    7    1    3    1
 -0.003662945070953727    7    1    3    2
 0.01467880647244285    7    1    3    3
 0.01240084978637792    7    1    4    1
 0.005078408336463553    7    1    4    2
 0.009781755684366129    7    1    4    3
 -0.005821691858235327    7    1    4    4
 -0.00382614519326138    7    1    5    1
 -0.005621400199619849    7    1    5    2
 9.378517687014189e-05    7    1    5    3
 -2.67081445800431e-05    7    1    5    4
 -0.0004783161527991134    7    1    5    5
 -0.009507482277549517    7    1    6    1
 -0.02357892071844205    7    1    6    2
 -0.001308454968948782    7    1    6    3
 0.004374591031509341    7    1    6    4
 0.0007089334126910703    7    1    6    5
 -0.01218030993385698    7    1    6    6
 0.04655851865857404    7    1    7    1
 -0.03530318823778768    7    2    1    1
 0.02306023288740787    7    2    2    1
 -0.03064006092332237    7    2    2    2
 -0.008853021728130262    7    2    3    1
 -0.004514372714933035    7    2    3    2
 -0.0162292120198857    7    2    3    3
 0.01485093862082306    7    2    4    1
 0.01620836997760153    7    2    4    2
 -0.004766406730118678    7    2    4    3
 -0.006737978738066058    7    2    4    4
 -0.007236918387327526    7    2    5    1
 -0.001501358525021184    7    2    5    2
 -0.004099137223990103    7    2    5    3
 0.001437970771135118    7    2    5    4
 -0.02802418176895138    7    2    5    5
 -0.02846958309442137    7    2    6    1
 0.006719802100694991    7    2    6    2
 0.005469245653424035    7    2    6    3
 -0.004165139806179342    7    2    6    4
 0.00775826134706843    7    2    6    5
 0.01159626019164777    7    2    6    6
 -0.007652501062015236    7    2    7    1
 0.05025265664514851    7    2    7    2
 0.02407896888443383    7    3    1    1
 -0.02326862286064964    7    3    2    1
 0.0263507501320383    7    3    2    2
 0.00196808137193382    7    3    3    1
 0.006898230170923198    7    3    3    2
 -0.008946844956426206    7    3    3    3
 -0.004345798587661948    7    3    4    1
 -0.009961353514783345    7    3    4    2
 -0.01759249150613759    7    3    4    3
 -0.007454062668299396    7    3    4    4
 0.0004777002221196452    7    3    5    1
 0.0004367549181665571    7    3    5    2
 0.008822910444491801    7    3    5    3
 0.00351040147318557    7    3    5    4
 0.02109415554990577    7    3    5    5
 0.0006790675066416646    7    3    6    1
 0.005761496563034796    7    3    6    2
 -0.001225813203546837    7    3    6    3
 -0.00551300743651779    7    3    6    4
 0.0009809355436170054    7    3    6    5
 0.03506067404331133    7    3    6    6
 -0.0008367346478854695    7    3    7    1
 -0.003167124501433671    7    3    7    2
 0.02595670495086121    7    3    7    3
 0.05167883024268819    7    4    1    1
 0.03011895414356039    7    4    2    1
 0.04276536021196613    7    4    2    2
 -0.002513642654115396    7    4    3    1
 -0.006676537779386362    7    4    3    2
 -0.0110799829109484    7    4    3    3
 -0.006330566028087417    7    4    4    1
 0.008664826186821257    7    4    4    2
 -0.04172501295051442    7    4    4    3
 0.04230117864794897    7    4    4    4
 2.685888944487088e-05    7    4    5    1
 -0.002580188671991722    7    4    5    2
 0.00480297988876034    7    4    5    3
 0.00659301611539301    7    4    5    4
 0.02458103085516095    7    4    5    5
 0.008275800597213457    7    4    6    1
 -0.01289428602437882    7    4    6    2
 -0.007026257633588632    7    4    6    3
 -0.0003767722101393118    7    4    6    4
 0.001943229385803419    7    4    6    5
 0.0140148668812562    7    4    6    6
 -0.0005384234625261722    7    4    7    1
 -0.005034447842207546    7    4    7    2
 0.002223328615633366    7    4    7    3
 0.02966134367488515    7    4    7    4
 -0.01520548208251571    7    5    1    1
 -0.02568077347898343    7    5    2    1
 -0.009588621272831921    7    5    2    2
 0.001732621305129724    7    5    3    1
 0.004071216598378369    7    5    3    2
 0.009793845268029823    7    5    3    3
 0.002579255932751458    7    5    4    1
 -0.006366123122623203    7    5    4    2
 0.01894490659436211    7    5    4    3
 -0.01726650476839936    7    5    4    4
 0.004060074727140929    7    5    5    1
 0.0006402133849190124    7    5    5    2
 0.002832329785124177    7    5    5    3
 -0.004312586353277389    7    5    5    4
 -0.0008474630506894835    7    5    5    5
 0.001864256608777643    7    5    6    1
 0.007593965345971704    7    5    6    2
 0.004893083454941509    7    5    6    3
 -0.004670132581402475    7    5    6    4
 -0.003771910023487943    7    5    6    5
 -0.003298357957120543    7    5    6    6
 0.0002589018455355818    7    5    7    1
 -0.00566100953296084    7    5    7    2
 0.001997162415140734    7    5    7    3
 -0.008299961376959365    7    5    7    4
 0.01322172217572211    7    5    7    5
 -0.01796231839308877    7    6    1    1
 -0.1061149746272338    7    6    2    1
 0.01126549438381135    7    6    2    2
 -0.008702907187966999    7    6    3    1
 0.02337130509931514    7    6    3    2
 -0.02492980326985133    7    6    3    3
 0.0127789703783455    7    6    4    1
 -0.02607815798658614    7    6    4    2
 0.02304410462005175    7    6    4    3
 -0.06638652100509901    7    6    4    4
 0.003963822130013566    7    6    5    1
 0.009834981603741797    7    6    5    2
 0.007155641257266306    7    6    5    3
 -0.009706914110731385    7    6    5    4
 -0.009542568801345257    7    6    5    5
 -0.005430004161943974    7    6    6    1
 0.04275885489627904    7    6    6    2
 0.02348289327211761    7    6    6    3
 -0.03110697649047887    7    6    6    4
 -0.002120873283864495    7    6    6    5
 0.06669923409274876    7    6    6    6
 -0.01168093014781626    7    6    7    1
 0.0003817522132224041    7    6    7    2
 0.01976176474284488    7    6    7    3
 -0.0240396924026625    7    6    7    4
 0.01867405731401678    7    6    7    5
 0.10119965269488    7    6    7    6
 0.4256104255739381    7    7    1    1
 -0.03434469083652247    7    7    2    1
 0.4288208782223478    7    7    2    2
 -0.002650655338462614    7    7    3    1
 0.01592899624296347    7    7    3    2
 0.2946118135578359    7    7    3    3
 -0.01908363604077121    7    7    4    1
 -0.02326492383207996    7    7    4    2
 -0.04992553141003603    7    7    4    3
 0.3453212496920527    7    7    4    4
 -0.0106218856849141    7    7    5    1
 -0.006061856171206871    7    7    5    2
 0.005864417477789433    7    7    5    3
 0.008285409000452867    7    7    5    4
 0.3095872291138627    7    7    5    5
 0.005990908658931413    7    7    6    1
 -0.009396978366973813    7    7    6    2
 0.003018342238695397    7    7    6    3
 -0.01655899504096886    7    7    6    4
 0.01730735994476798    7    7    6    5
 0.4132157726003468    7    7    6    6
 0.0003733728567538765    7    7    7    1
 -0.007887517915500478    7    7    7    2
 0.02539519187418172    7    7    7    3
 0.02159973208225878    7    7    7    4
 -0.001799592313115203    7    7    7    5
 0.02248110908478073    7    7    7    6
 0.4094469757648181    7    7    7    7
 0.01110645552067366    8    1    1    1
 -0.01013745627205666    8    1    2    1
 0.01928548560416359    8    1    2    2
 -0.0008540907135051855    8    1    3    1
 0.006030800431531592    8    1    3    2
 -0.002804007479773693    8    1    3    3
 -0.001522293892452556    8    1    4    1
 -0.005469487260079239    8    1    4    2
 -0.002339996795680252    8    1    4    3
 0.001432771855784857    8    1    4    4
 0.01825911004973451    8    1    5    1
 -0.0006201485872980236    8    1    5    2
 0.002004039176370374    8    1    5    3
 -0.003092079934087589    8    1    5    4
 0.01432931385924427    8    1    5    5
 -0.007873085810069482    8    1    6    1
 -0.02090632276823578    8    1    6    2
 -0.00191970351318043    8    1    6    3
 0.001868583156685735    8    1    6    4
 0.0001652745100528653    8    1    6    5
 0.01040463785963783    8    1    6    6
 0.002900793239761266    8    1    7    1
 0.001763927941900281    8    1    7    2
 -0.00282693426936747    8    1    7    3
 0.003692105615090078    8    1    7    4
 -0.002093295230904998    8    1    7    5
 -0.006040634842174351    8    1    7    6
 0.007351980915733118    8    1    7    7
 0.04811234087032398    8    1    8    1
 -0.01947496027187667    8    2    1    1
 0.02951896909408143    8    2    2    1
 -0.02235193509938566    8    2    2    2
 0.007107955508145112    8    2    3    1
 -0.002609414002001968    8    2    3    2
 0.003075606957877503    8    2    3    3
 -0.00457863018927634    8    2    4    1
 -0.0003008033260371336    8    2    4    2
 0.0001908056328529847    8    2    4    3
 0.00422058504756663    8    2    4    4
 -0.00137118833605293    8    2    5    1
 0.01236150742561492    8    2    5    2
 -0.001035007003311451    8    2    5    3
 -0.0008196276020642085    8    2    5    4
 -0.01158472513286788    8    2    5    5
 -0.02640345929312528    8    2    6    1
 -0.004340016771236577    8    2    6    2
 0.001453943817122351    8    2    6    3
 0.001482417063251233    8    2    6    4
 0.003088752752033325    8    2    6    5
 0.003074558802037123    8    2    6    6
 0.004184754441775382    8    2    7    1
 0.009266156065650011    8    2    7    2
 -0.002192864280075597    8    2    7    3
 0.0002154008647118864    8    2    7    4
 -0.002491403455785545    8    2    7    5
 -0.01024056763622442    8    2    7    6
 -0.004422354121356183    8    2    7    7
 0.01475549202237299    8    2    8    1
 0.04872486394169453    8    2    8    2
 -0.01276392611759157    8    3    1    1
 0.01579766732192837    8    3    2    1
 -0.01213604652057873    8    3    2    2
 -0.005745012808617674    8    3    3    1
 -0.004059217501806343    8    3    3    2
 -0.007617223222280293    8    3    3    3
 0.006326241311096997    8    3    4    1
 0.006923908017736525    8    3    4    2
 0.003293983738720968    8    3    4    3
 0.001825322601424154    8    3    4    4
 -0.003097783774686196    8    3    5    1
 0.001108674956531399    8    3    5    2
 -0.00550066730835335    8    3    5    3
 -0.001154304428972861    8    3    5    4
 -0.02342689391815233    8    3    5    5
 -0.003774006472134406    8    3    6    1
 0.006416979377630325    8    3    6    2
 0.0007082202095348383    8    3    6    3
 0.004478888421248545    8    3    6    4
 0.003870885226516555    8    3    6    5
 -0.005515257509150184    8    3    6    6
 -0.005585581411729386    8    3    7    1
 0.006550705714481049    8    3    7    2
 -0.01296908729802766    8    3    7    3
 -0.005475330062379093    8    3    7    4
 -0.001296895557016169    8    3    7    5
 -0.003101599507931874    8    3    7    6
 -0.01136536860397298    8    3    7    7
 -0.004262742243144726    8    3    8    1
 0.0008909239948038904    8    3    8    2
 0.01534422645214003    8    3    8    3
 -0.01156123695104692    8    4    1    1
 -0.01102426580265641    8    4    2    1
 -0.01283542473382702    8    4    2    2
 0.00464094682306879    8    4    3    1
 0.00267054186301885    8    4    3    2
 0.01026009769854088    8    4    3    3
 -0.004303285955307599    8    4    4    1
 -0.004331311139185649    8    4    4    2
 0.01712938776399441    8    4    4    3
 -0.009216531058514527    8    4    4    4
 -2.97176170756152e-05    8    4    5    1
 -0.001246918785171744    8    4    5    2
 -0.002740789710696537    8    4    5    3
 -0.0007582059244194306    8    4    5    4
 -6.596195556528447e-05    8    4    5    5
 0.002523648500538204    8    4    6    1
 -0.005695481628410377    8    4    6    2
 0.00412124633296825    8    4    6    3
 -0.004919604356005812    8    4    6    4
 -0.004799429840822528    8    4    6    5
 -0.01638671171488754    8    4    6    6
 0.004155602560826959    8    4    7    1
 -0.002245118640522878    8    4    7    2
 -0.005842125830131443    8    4    7    3
 -0.004899238712223451    8    4    7    4
 0.003613643222030174    8    4    7    5
 -0.001257842681369587    8    4    7    6
 -0.004246611747936024    8    4    7    7
 0.002595517636117231    8    4    8    1
 0.0001135919843692169    8    4    8    2
 -0.005546798279137592    8    4    8    3
 0.01830704375388587    8    4    8    4
 0.05898299328406627    8    5    1    1
 -0.002940372236145627    8    5    2    1
 0.0584083449554815    8    5    2    2
 -0.005876817907115375    8    5    3    1
 0.002159741151448542    8    5    3    2
 0.003250393851487018    8    5    3    3
 -0.002719347014898727    8    5    4    1
 -0.001787700210441415    8    5    4    2
 -0.02118971187995321    8    5    4    3
 0.03280468813757415    8    5    4    4
 -0.01146160684178044    8    5    5    1
 -0.002261630705060734    8    5    5    2
 -0.008950985574567645    8    5    5    3
 0.008983494199795326    8    5    5    4
 -0.03734617140090157    8    5    5    5
 0.004624202127791381    8    5    6    1
 0.002628982970879682    8    5    6    2
 0.002273257705711519    8    5    6    3
 -0.006273434449220091    8    5    6    4
 0.01424640163697986    8    5    6    5
 0.04887455634181936    8    5    6    6
 -0.004162011461251235    8    5    7    1
 2.892757391489975e-05    8    5    7    2
 0.004235818474376643    8    5    7    3
 0.007617540980849276    8    5    7    4
 -0.003773042094949256    8    5    7    5
 0.006098434262576235    8    5    7    6
 0.03933851085372532    8    5    7    7
 -0.006209319127867836    8    5    8    1
 -0.003761739353817724    8    5    8    2
 0.001608132288155057    8    5    8    3
 -0.002176956113766432    8    5    8    4
 0.03965347043106836    8    5    8    5
 -0.02581609892232729    8    6    1    1
 -0.0917337357584318    8    6    2    1
 -0.006352011261446466    8    6    2    2
 -0.003267640609644234    8    6    3    1
 0.0189666175265965    8    6    3    2
 -0.01287341404023994    8    6    3    3
 0.006756696059404289    8    6    4    1
 -0.022191082832732    8    6    4    2
 0.03171829156271036    8    6    4    3
 -0.06172641663677345    8    6    4    4
 0.004008898422563521    8    6    5    1
 0.006939275223893916    8    6    5    2
 0.007855807253242997    8    6    5    3
 -0.01284459089415744    8    6    5    4
 0.004719308337698962    8    6    5    5
 0.005046054216073579    8    6    6    1
 0.02949156305417792    8    6    6    2
 0.01754493437341729    8    6    6    3
 -0.02524520970628978    8    6    6    4
 -0.00110187860318719    8    6    6    5
 0.02996895296867323    8    6    6    6
 -0.005792416009917377    8    6    7    1
 -0.007182090890989343    8    6    7    2
 0.01011940015463587    8    6    7    3
 -0.01825212378352127    8    6    7    4
 0.01511693954773723    8    6    7    5
 0.06685068943503804    8    6    7    6
 0.00300019463309275    8    6    7    7
 -0.01305690510680105    8    6    8    1
 -0.01410846591091898    8    6    8    2
 -0.003424788173387234    8    6    8    3
 0.002589086519129401    8    6    8    4
 -0.0010482421307702    8    6    8    5
 0.06956090597205233    8    6    8    6
 0.02020924482996835    8    7    1    1
 0.01022251800833372    8    7    2    1
 0.02476026793331726    8    7    2    2
 -0.009132454211793673    8    7    3    1
 -0.0009702052854574442    8    7    3    2
 -0.02554401528983336    8    7    3    3
 0.00577112336728723    8    7    4    1
 0.005191662020766827    8    7    4    2
 -0.02511099227779755    8    7    4    3
 0.009243974825110787    8    7    4    4
 -0.00416942109688892    8    7    5    1
 0.0008097006595248265    8    7    5    2
 0.0002016948501474642    8    7    5    3
 0.006075091965053878    8    7    5    4
 -0.002849637923539697    8    7    5    5
 -0.00951756171788929    8    7    6    1
 0.001126979959397588    8    7    6    2
 0.0004248386997729364    8    7    6    3
 -0.004257267993402696    8    7    6    4
 0.007517140564332329    8    7    6    5
 0.03956652348453595    8    7    6    6
 -0.002394506429718764    8    7    7    1
 0.01186657878287373    8    7    7    2
 0.002220121570778432    8    7    7    3
 0.007365558163268941    8    7    7    4
 -0.002756291577444279    8    7    7    5
 0.0004645805744647336    8    7    7    6
 0.01516189820268852    8    7    7    7
 0.006070412919738911    8    7    8    1
 0.009573614955443253    8    7    8    2
 0.003072793490187322    8    7    8    3
 -0.004397025006152345    8    7    8    4
 0.006147410116888854    8    7    8    5
 -0.00788830492825914    8    7    8    6
 0.02469983603536202    8    7    8    7
 0.4347185574698387    8    8    1    1
 0.05216902377941943    8    8    2    1
 0.4239060547178325    8    8    2    2
 -0.005976907610353369    8    8    3    1
 -0.001485108196341872    8    8    3    2
 0.2801798179724831    8    8    3    3
 -0.01864192767071232    8    8    4    1
 0.000193335315085294    8    8    4    2
 -0.08450040387246956    8    8    4    3
 0.3833364270048882    8    8    4    4
 -0.01306973909764289    8    8    5    1
 -0.006641994157861124    8    8    5    2
 0.002899909434231678    8    8    5    3
 0.01908671554583664    8    8    5    4
 0.3239760377746562    8    8    5    5
 -0.001030974085998913    8    8    6    1
 -0.0265129444880344    8    8    6    2
 -0.01412412301757368    8    8    6    3
 0.005989139530160979    8    8    6    4
 0.0150048893081568    8    8    6    5
 0.3804555855685789    8    8    6    6
 -1.006694558427883e-05    8    8    7    1
 -0.0004957784204309701    8    8    7    2
 0.01355040067286259    8    8    7    3
 0.03627609886207532    8    8    7    4
 -0.01512259361400831    8    8    7    5
 -0.03193865175460202    8    8    7    6
 0.3651006809769551    8    8    7    7
 0.01720813730092762    8    8    8    1
 0.01174478469529514    8    8    8    2
 -0.005132586148296186    8    8    8    3
 -0.01248901096246893    8    8    8    4
 0.03605785127467362    8    8    8    5
 -0.04458381538623395    8    8    8    6
 0.02767487714000665    8    8    8    7
 0.4174179690283901    8    8    8    8
 0.004839147117861721    9    1    1    1
 -0.01633654924888332    9    1    2    1
 0.006224209245841777    9    1    2    2
 -0.002637463124037139    9    1    3    1
 0.005310708039214755    9    1    3    2
 -0.009045623524516351    9    1    3    3
 -0.002311557380966999    9    1    4    1
 -0.001353323126948884    9    1    4    2
 -0.0001266299350859478    9    1    4    3
 -0.006250413197378658    9    1    4    4
 -0.01166218156393464    9    1    5    1
 -0.01408213598242803    9    1    5    2
 -0.001397320046620043    9    1    5    3
 0.002434759522597427    9    1    5    4
 0.001241399519182002    9    1    5    5
 0.0005776624956944946    9    1    6    1
 -0.01504156113760771    9    1    6    2
 0.0004816868592056522    9    1    6    3
 -0.002476317376805279    9    1    6    4
 0.004770822222918989    9    1    6    5
 0.008077314355888796    9    1    6    6
 0.006886783349475116    9    1    7    1
 0.02189118301875179    9    1    7    2
 -0.001638974083986045    9    1    7    3
 2.173484764329044e-05    9    1    7    4
 -0.004181791573417891    9    1    7    5
 -0.004414291297119851    9    1    7    6
 0.008396713966645788    9    1    7    7
 -0.006521411744332214    9    1    8    1
 -0.02355795860642827    9    1    8    2
 0.001617312206981357    9    1    8    3
 0.001342332891548257    9    1    8    4
 0.004758951231824543    9    1    8    5
 0.0001718217071019811    9    1    8    6
 0.002534042995733648    9    1    8    7
 0.002738898760878637    9    1    8    8
 0.04177186733288098    9    1    9    1
 -0.02552647312493986    9    2    1    1
 0.001643921757477774    9    2    2    1
 -0.02095358152182221    9    2    2    2
 0.005653239774352786    9    2    3    1
 -0.0007761295011851658    9    2    3    2
 0.001887533197926042    9    2    3    3
 0.001335297588082002    9    2    4    1
 -0.003469066294921288    9    2    4    2
 0.008800213876574016    9    2    4    3