 &FCI NORB=  13,NELEC=18,MS2=0,
  ORBSYM=1,1,1,1,1,1,1,1,1,1,1,1,1,
  ISYM=1,
 &END
 0.6186721508767623    1    1    1    1
 -0.08341082480696629    2    1    1    1
 0.1615502100619532    2    1    2    1
 0.4995383566439662    2    2    1    1
 0.1021096713856208    2    2    2    1
 0.6191419808127169    2    2    2    2
 -0.04082937033926133    3    1    1    1
 0.02168277073439414    3    1    2    1
 -0.01369284111539157    3    1    2    2
 0.007591175641941513    3    1    3    1
 0.03767824387781724    3    2    1    1
 0.0006223537108911014    3    2    2    1
 0.03770343933855439    3    2    2    2
 -0.006078959754519861    3    2    3    1
 0.008601094454800434    3    2    3    2
 0.2061773805392414    3    3    1    1
 -0.02949270138757438    3    3    2    1
 0.1790661330515724    3    3    2    2
 0.02890291847162927    3    3    3    1
 -0.04763443615948204    3    3    3    2
 0.6974181365730602    3    3    3    3
 0.03414704715860409    4    1    1    1
 -0.007340284742785657    4    1    2    1
 0.02383639973283266    4    1    2    2
 -0.002972506212332098    4    1    3    1
 0.002323083891301167    4    1    3    2
 0.007961465286240116    4    1    3    3
 0.03463837432858023    4    1    4    1
 -0.003913948018738559    4    2    1    1
 0.02746216748690259    4    2    2    1
 0.02858130218498496    4    2    2    2
 0.002830444628843597    4    2    3    1
 0.00120428370131311    4    2    3    2
 -0.004599842660085988    4    2    3    3
 0.004461927541003195    4    2    4    1
 0.02052341842351576    4    2    4    2
 -0.002753242600382534    4    3    1    1
 0.002276693309535747    4    3    2    1
 0.0004051883374373623    4    3    2    2
 0.001262976032672661    4    3    3    1
 -0.001436584253328229    4    3    3    2
 0.01377271825619283    4    3    3    3
 -0.001605344022881212    4    3    4    1
 0.001453558811760447    4    3    4    2
 0.001046218161577729    4    3    4    3
 0.3904539951187031    4    4    1    1
 0.01048341085857512    4    4    2    1
 0.3862839237915477    4    4    2    2
 -0.01498607373002992    4    4    3    1
 0.02139500648620456    4    4    3    2
 0.1692754040204286    4    4    3    3
 -0.0614726166077001    4    4    4    1
 -0.01540506564879662    4    4    4    2
 0.002070554215857973    4    4    4    3
 0.5920336071644819    4    4    4    4
 0.001955043742051751    5    1    1    1
 -0.004688565710593585    5    1    2    1
 -0.0007193164780880457    5    1    2    2
 -0.0009936546722750083    5    1    3    1
 0.000215626973896475    5    1    3    2
 0.002418985726133803    5    1    3    3
 -0.002945204086328793    5    1    4    1
 -0.002168945214888893    5    1    4    2
 0.0008273449587484801    5    1    4    3
 0.00868940285742369    5    1    4    4
 0.004166480296432917    5    1    5    1
 -0.007680836224352396    5    2    1    1
 0.003905224394716428    5    2    2    1
 -0.003695878361758419    5    2    2    2
 0.0003522127789952821    5    2    3    1
 0.0002046854350051088    5    2    3    2
 -0.009800869822014191    5    2    3    3
 -0.002954649206112697    5    2    4    1
 -0.001716871622201339    5    2    4    2
 -0.0003417254361732659    5    2    4    3
 0.002808698046710044    5    2    4    4
 0.0005996273598416727    5    2    5    1
 0.002359450995390914    5    2    5    2
 0.002428496126466002    5    3    1    1
 -0.004323355832554263    5    3    2    1
 -0.0007884945129259082    5    3    2    2
 0.005376440204074151    5    3    3    1
 -0.008802732548573085    5    3    3    2
 0.0973201420509134    5    3    3    3
 0.002878104031267601    5    3    4    1
 -0.0009323821740569952    5    3    4    2
 0.003870776944613159    5    3    4    3
 -0.005963163908498785    5    3    4    4
 0.002378887522414228    5    3    5    1
 -0.002846831925732388    5    3    5    2
 0.02551364023292772    5    3    5    3
 -0.02766555508627783    5    4    1    1
 -0.004703623526118826    5    4    2    1
 -0.02993183834333096    5    4    2    2
 0.003051454668443497    5    4    3    1
 -0.004150771039539465    5    4    3    2
 0.01235875544145799    5    4    3    3
 0.01106237656250132    5    4    4    1
 0.002796224271585974    5    4    4    2
 -0.001965334699926487    5    4    4    3
 -0.06829287985586223    5    4    4    4
 -0.005424336919716697    5    4    5    1
 -0.0007607494801065671    5    4    5    2
 -0.003330068618905025    5    4    5    3
 0.02199337029235741    5    4    5    4
 0.1797357189374326    5    5    1    1
 0.0008742115092955998    5    5    2    1
 0.1775993785707162    5    5    2    2
 0.003536174669078598    5    5    3    1
 -0.004645092298223463    5    5    3    2
 0.2141429215290663    5    5    3    3
 -0.008766123972088841    5    5    4    1
 -0.0007233383363863949    5    5    4    2
 -0.004282114377648876    5    5    4    3
 0.1992571926687303    5    5    4    4
 -0.007769110728300666    5    5    5    1
 0.005238705197367716    5    5    5    2
 -0.02607586582316416    5    5    5    3
 0.02515190498120629    5    5    5    4
 0.3459644108261121    5    5    5    5
 0.06028549902300948    6    1    1    1
 -0.005704631710082987    6    1    2    1
 0.03041791175438663    6    1    2    2
 -0.004988284782766389    6    1    3    1
 0.003642707116070314    6    1    3    2
 0.00119721526849603    6    1    3    3
 -0.006135847081975218    6    1    4    1
 0.008042766736664073    6    1    4    2
 0.0003462581340338087    6    1    4    3
 0.03076057597537765    6    1    4    4
 -0.00710729207060397    6    1    5    1
 0.001126210322385352    6    1    5    2
 -0.002560966138007991    6    1    5    3
 -0.002299266691124002    6    1    5    4
 0.01405544209279853    6    1    5    5
 0.07014301259036662    6    1    6    1
 -0.0192425301718229    6    2    1    1
 -0.02352428059027715    6    2    2    1
 -0.04105475896297142    6    2    2    2
 -0.0003768312665882783    6    2    3    1
 -0.003202652003335203    6    2    3    2
 0.007028520354611832    6    2    3    3
 0.01270971187056908    6    2    4    1
 -0.00524566253633436    6    2    4    2
 -0.0009040992383886398    6    2    4    3
 -0.03582388002001981    6    2    4    4
 0.001926043413474713    6    2    5    1
 -0.003533183369423798    6    2    5    2
 0.001923499226186352    6    2    5    3
 0.006765712914051199    6    2    5    4
 -0.004935030985683389    6    2    5    5
 -0.03759820944778509    6    2    6    1
 0.03301066691968241    6    2    6    2
 -0.001813876731906736    6    3    1    1
 -0.001179177865287344    6    3    2    1
 -0.001283073934602341    6    3    2    2
 0.0007488548614091223    6    3    3    1
 -0.0009300404439969612    6    3    3    2
 0.009352634617137125    6    3    3    3
 0.0009569442431761315    6    3    4    1
 -0.001051267687063823    6    3    4    2
 -0.00012873424062281    6    3    4    3
 0.0005114010343086634    6    3    4    4
 2.262682458952718e-05    6    3    5    1
 -0.0008040904896770039    6    3    5    2
 0.002033621255267949    6    3    5    3
 0.0009226753336960358    6    3    5    4
 -0.00399717512145998    6    3    5    5
 -0.007809365950729595    6    3    6    1
 0.005311947807360247    6    3    6    2
 0.00249937575268077    6    3    6    3
 -0.01733509926259109    6    4    1    1
 0.0267900485132986    6    4    2    1
 0.005888512955620505    6    4    2    2
 0.00284779543405321    6    4    3    1
 -6.694312778260381e-05    6    4    3    2
 -0.0130943687962897    6    4    3    3
 -0.01387504890443431    6    4    4    1
 -0.001037690794438826    6    4    4    2
 0.001090268544118711    6    4    4    3
 0.04117401002079131    6    4    4    4
 0.00087447223653158    6    4    5    1
 0.003355965124648569    6    4    5    2
 -0.00180279890186155    6    4    5    3
 -0.01289003199226609    6    4    5    4
 0.00221334426095271    6    4    5    5
 0.01560414949373503    6    4    6    1
 -0.01742900693076121    6    4    6    2
 -0.003441431985158293    6    4    6    3
 0.02433282697186926    6    4    6    4
 -0.06106554716505637    6    5    1    1
 0.004265030451893147    6    5    2    1
 -0.05339689283782984    6    5    2    2
 0.003528682970729776    6    5    3    1
 -0.004980670051679664    6    5    3    2
 -0.008362319459355868    6    5    3    3
 0.001427033853028543    6    5    4    1
 0.002826482690043156    6    5    4    2
 0.0004551291221580283    6    5    4    3
 -0.05924482769920322    6    5    4    4
 0.001904612414779256    6    5    5    1
 0.002578948327186527    6    5    5    2
 -0.005561617107206331    6    5    5    3
 0.007236954576900887    6    5    5    4
 0.0316456063274465    6    5    5    5
 -0.003843493544280367    6    5    6    1
 0.001513739507960698    6    5    6    2
 -0.005840292835945048    6    5    6    3
 0.004453784245267361    6    5    6    4
 0.04153666040040967    6    5    6    5
 0.4836199902834137    6    6    1    1
 -0.1142325742332346    6    6    2    1
 0.3523038453615901    6    6    2    2
 -0.03227846429919963    6    6    3    1
 0.02316047218265817    6    6    3    2
 0.2158268934682943    6    6    3    3
 0.03416476539474468    6    6    4    1
 -0.02223388423429837    6    6    4    2
 -0.004512547672130759    6    6    4    3
 0.3130273080021131    6    6    4    4
 0.004972288568414709    6    6    5    1
 -0.008447366839095874    6    6    5    2
 0.0008090533251934573    6    6    5    3
 -0.00975737604161326    6    6    5    4
 0.1983293484724535    6    6    5    5
 -0.02061257978050141    6    6    6    1
 0.03859625508851755    6    6    6    2
 0.007492482360589955    6    6    6    3
 -0.0464923230777022    6    6    6    4
 -0.04579559142175613    6    6    6    5
 0.5248546757459814    6    6    6    6
 -0.049522394156077    7    1    1    1
 0.007469923278682146    7    1    2    1
 -0.02693694572576965    7    1    2    2
 0.007002140043181997    7    1    3    1
 -0.005391171482742451    7    1    3    2
 0.01121644905372108    7    1    3    3
 0.003704317988013865    7    1    4    1
 -0.003815254528583904    7    1    4    2
 -0.001012586609025526    7    1    4    3
 -0.02422562330514754    7    1    4    4
 -0.003981805228950035    7    1    5    1
 -0.001401419363301758    7    1    5    2
 0.0001889106752619062    7    1    5    3
 0.01036876719019674    7    1    5    4
 0.00790455312697063    7    1    5    5
 -0.02824057710227063    7    1    6    1
 0.01770595778070034    7    1    6    2
 0.004458151635658682    7    1    6    3
 -0.01031390818231984    7    1    6    4
 -0.002258547003219058    7    1    6    5
 0.0008505298576894963    7    1    6    6
 0.03667127378195321    7    1    7    1
 0.01067532116088245    7    2    1    1
 0.003896475165705809    7    2    2    1
 0.01127970649618055    7    2    2    2
 -0.001410173946742542    7    2    3    1
 0.001823769340901348    7    2    3    2
 -0.005319469436107428    7    2    3    3
 -0.006139726233716256    7    2    4    1
 0.002447335909220436    7    2    4    2
 0.0002237313340759522    7    2    4    3
 0.01231343843748161    7    2    4    4
 -0.001259516733436449    7    2    5    1
 -0.0006185331744692694    7    2    5    2
 -0.001720252294379887    7    2    5    3
 -0.001955975499465158    7    2    5    4
 0.00459626548594448    7    2    5    5
 0.01787260387087418    7    2    6    1
 -0.01266630850132818    7    2    6    2
 -0.002422810348047897    7    2    6    3
 0.007158622737489144    7    2    6    4
 0.001837536274457843    7    2    6    5
 -0.01549385922843239    7    2    6    6
 -0.01384304527288674    7    2    7    1
 0.01274962677982317    7    2    7    2
 0.02234273558109282    7    3    1    1
 -0.001257611579786576    7    3    2    1
 0.0182971888761485    7    3    2    2
 -0.002906296475113136    7    3    3    1
 0.004167386785196769    7    3    3    2
 -0.02488766522339976    7    3    3    3
 -0.001907923870251043    7    3    4    1
 0.0002426061481858727    7    3    4    2
 -0.001225633110944136    7    3    4    3
 0.02040856493528539    7    3    4    4
 -0.001614773876048631    7    3    5    1
 -4.648384415105282e-05    7    3    5    2
 -0.005908141394560546    7    3    5    3
 -0.0008123640068858091    7    3    5    4
 -0.002482459244017708    7    3    5    5
 0.006670101526800694    7    3    6    1
 -0.003837687541116454    7    3    6    2
 0.0008697201697829063    7    3    6    3
 -0.0004773876141305035    7    3    6    4
 -0.0128037544629598    7    3    6    5
 0.01042332522981649    7    3    6    6
 -0.002581909139520654    7    3    7    1
 0.001862050683532448    7    3    7    2
 0.0076011293521012    7    3    7    3
 0.01267085175809568    7    4    1    1
 -0.01509539518357784    7    4    2    1
 -0.001452074474516215    7    4    2    2
 -0.003331356266945238    7    4    3    1
 0.001215085853024564    7    4    3    2
 -0.001759231727129333    7    4    3    3
 0.003332479556206439    7    4    4    1
 -0.001816892426091977    7    4    4    2
 0.0013552174788733    7    4    4    3
 -0.001415341870753583    7    4    4    4
 0.005756165980232596    7    4    5    1
 -0.0003109287384668383    7    4    5    2
 0.002834247606829976    7    4    5    3
 -0.008753612289614262    7    4    5    4
 -0.01191708181434177    7    4    5    5
 -0.01092289745531776    7    4    6    1
 0.007719466432331776    7    4    6    2
 -0.0009665234374515003    7    4    6    3
 -0.002884167026506257    7    4    6    4
 0.007920650768479212    7    4    6    5
 0.02356391297943242    7    4    6    6
 -0.002674979384368647    7    4    7    1
 -0.004625455545942691    7    4    7    2
 -0.004766001977219643    7    4    7    3
 0.01762190651756454    7    4    7    4
 -0.06033567702329516    7    5    1    1
 -0.007059254077593188    7    5    2    1
 -0.0632695560044378    7    5    2    2
 0.0006845670485987354    7    5    3    1
 -0.00382420730161977    7    5    3    2
 -0.02111160066179492    7    5    3    3
 0.008618350367209808    7    5    4    1
 -0.0001590590369547826    7    5    4    2
 0.0009968976887475495    7    5    4    3
 -0.07569075536667937    7    5    4    4
 0.005642519584687679    7    5    5    1
 0.003062484589031328    7    5    5    2
 -0.005761236170730645    7    5    5    3
 0.002872846477978128    7    5    5    4
 0.02963963149617291    7    5    5    5
 -0.01390406666489228    7    5    6    1
 0.009779440938785279    7    5    6    2
 -0.009232527288710497    7    5    6    3
 0.004374378049421288    7    5    6    4
 0.06261914353419441    7    5    6    5
 -0.02713128684185162    7    5    6    6
 -0.002351369335588119    7    5    7    1
 -0.001654345668032041    7    5    7    2
 -0.02201037298071929    7    5    7    3
 0.02178554790364266    7    5    7    4
 0.109042888937662    7    5    7    5
 -0.1232375984259119    7    6    1    1
 0.05437911036417452    7    6    2    1
 -0.064041138586166    7    6    2    2
 0.01487719279233319    7    6    3    1
 -0.009954648474607157    7    6    3    2
 -0.01231891597782539    7    6    3    3
 -0.02097752503606981    7    6    4    1
 0.0101704079084706    7    6    4    2
 -0.0003694830541090027    7    6    4    3
 -0.03627525095243856    7    6    4    4
 -0.007864826547802828    7    6    5    1
 0.005795409497156671    7    6    5    2
 -0.01333529900757357    7    6    5    3
 0.01406454661231435    7    6    5    4
 0.05930385691457564    7    6    5    5
 0.01904360907451116    7    6    6    1
 -0.0216268749625185    7    6    6    2
 -0.00402426563648892    7    6    6    3
 0.02231149559282793    7    6    6    4
 0.02600627072706929    7    6    6    5
 -0.1390148070495829    7    6    6    6
 0.00324351828414392    7    6    7    1
 0.01112252617743622    7    6    7    2
 -0.00263120980085437    7    6    7    3
 -0.020379804060529    7    6    7    4
 0.01318785007895724    7    6    7    5
 0.09175896476645784    7    6    7    6
 0.3317478457409538    7    7    1    1
 -0.0422809164512474    7    7    2    1
 0.2765281184126763    7    7    2    2
 -0.01197216118280152    7    7    3    1
 0.00922768695976639    7    7    3    2
 0.2133995894974318    7    7    3    3
 0.004317375640935508    7    7    4    1
 -0.008218129652339923    7    7    4    2
 -0.004891707898036333    7    7    4    3
 0.2737070500886186    7    7    4    4
 -0.004982098063596084    7    7    5    1
 -0.001532886264403704    7    7    5    2
 -0.015264206344276    7    7    5    3
 0.01087171812661417    7    7    5    4
 0.2771179330053334    7    7    5    5
 0.01406672021199295    7    7    6    1
 0.003524820137550641    7    7    6    2
 0.002133071964729737    7    7    6    3
 -0.01730735629753768    7    7    6    4
 -0.02015597046315279    7    7    6    5
 0.3265537618009107    7    7    6    6
 0.001768600236320611    7    7    7    1
 -0.0007625343568434945    7    7    7    2
 0.01225331576432664    7    7    7    3
 -0.006667899730314189    7    7    7    4
 -0.0327317110018468    7    7    7    5
 -0.02212641900056356    7    7    7    6
 0.3155050816474813    7    7    7    7
 0.002542201448394056    8    1    1    1
 -0.001640229180144656    8    1    2    1
 0.01037408333310467    8    1    2    2
 0.003033311837267803    8    1    3    1
 -0.001920247965307945    8    1    3    2
 0.0183181097259025    8    1    3    3
 -0.002626890536405983    8    1    4    1
 0.001549076124922724    8    1    4    2
 0.0006215617297953352    8    1    4    3
 0.00836372983011891    8    1    4    4
 -0.005607690173709309    8    1    5    1
 -0.0002855022519624925    8    1    5    2
 0.001658437732603139    8    1    5    3
 0.003197581329396151    8    1    5    4
 0.009803627127688445    8    1    5    5
 0.01489301745933785    8    1    6    1
 -0.008219172317289903    8    1    6    2
 -0.001883297385125649    8    1    6    3
 0.0001132975740363992    8    1    6    4
 -0.003857277871701256    8    1    6    5
 0.000358545256596475    8    1    6    6
 0.02759306227100638    8    1    7    1
 -0.01034282958209317    8    1    7    2
 -0.001123305279384999    8    1    7    3
 -0.0009479050336049285    8    1    7    4
 -0.003156406440034454    8    1    7    5
 0.001991716709834924    8    1    7    6
 0.01018487615727598    8    1    7    7
 0.07005553299896432    8    1    8    1
 -0.005678991044005646    8    2    1    1
 0.01769714729038725    8    2    2    1
 0.01149423043843687    8    2    2    2
 0.0002890950640733208    8    2    3    1
 0.001709404651105346    8    2    3    2
 -0.01196471991044678    8    2    3    3
 0.001623497623445436    8    2    4    1
 0.002705710850091898    8    2    4    2
 -0.0002813147742398008    8    2    4    3
 -0.00167069501017621    8    2    4    4
 0.001069054531669846    8    2    5    1
 -0.0005825780536793993    8    2    5    2
 -0.001473103962833805    8    2    5    3
 -0.001439964302896516    8    2    5    4
 -0.004373746286864465    8    2    5    5
 -0.00797524117839255    8    2    6    1
 0.001820711794622804    8    2    6    2
 0.001234301452361738    8    2    6    3
 0.001853985730010219    8    2    6    4
 0.0009779417474500927    8    2    6    5
 -0.007031066603199672    8    2    6    6
 -0.01280611647607885    8    2    7    1
 0.009001300363644132    8    2    7    2
 0.001013254972028047    8    2    7    3
 -0.002693195550236182    8    2    7    4
 -0.0009075733639221407    8    2    7    5
 0.004936655382144465    8    2    7    6
 -0.008918291897441158    8    2    7    7
 -0.0387704790324839    8    2    8    1
 0.02667848568391234    8    2    8    2
 0.006240978580912765    8    3    1    1
 -0.002537995607792079    8    3    2    1
 0.002463795239330463    8    3    2    2
 -0.001576246489028407    8    3    3    1
 0.001467453286780755    8    3    3    2
 -0.01033038508610088    8    3    3    3
 0.002136200259922514    8    3    4    1
 -0.0005529463584863117    8    3    4    2
 5.033059756691361e-05    8    3    4    3
 -0.001065171499139329    8    3    4    4
 0.001305389402204659    8    3    5    1
 -0.0002199937108183043    8    3    5    2
 -0.0007724370198826214    8    3    5    3
 -0.001891152771177857    8    3    5    4
 -0.004236967539423844    8    3    5    5
 -0.003283680727353465    8    3    6    1
 0.002532182882591803    8    3    6    2
 -0.0009044713954088775    8    3    6    3
 -0.0006203420394493946    8    3    6    4
 0.003403591141769434    8    3    6    5
 0.007225928474749333    8    3    6    6
 -0.003573369413811373    8    3    7    1
 0.0008148181887520567    8    3    7    2
 -0.0005451901469998043    8    3    7    3
 0.003155034400023078    8    3    7    4
 0.008675889495416256    8    3    7    5
 -0.004879072721075611    8    3    7    6
 -0.002410571430626889    8    3    7    7
 -0.008201310722919982    8    3    8    1
 0.004359419372635615    8    3    8    2
 0.003439013906131487    8    3    8    3
 -0.007855554540449738    8    4    1    1
 0.00336520223686315    8    4    2    1
 -0.002276423317331595    8    4    2    2
 0.001805147268180632    8    4    3    1
 -0.001322614683861967    8    4    3    2
 0.005105047421171476    8    4    3    3
 0.002370962242381842    8    4    4    1
 0.0008421845942529547    8    4    4    2
 -0.0001963304560300479    8    4    4    3
 -0.0146161035248705    8    4    4    4
 -0.001023293554808242    8    4    5    1
 3.095804533909379e-05    8    4    5    2
 -0.0003059188152636319    8    4    5    3
 0.003575573857055439    8    4    5    4
 0.004584872540998354    8    4    5    5
 0.0005545909245096476    8    4    6    1
 -0.0001183172896767975    8    4    6    2
 0.0003778645815604049    8    4    6    3
 -0.000609767325613846    8    4    6    4
 -0.002125949441929623    8    4    6    5
 -0.008011524134775549    8    4    6    6
 0.005687681171741643    8    4    7    1
 -0.003364980258091642    8    4    7    2
 0.0009491073825129966    8    4    7    3
 0.0002935137071062924    8    4    7    4
 -0.006724644523824517    8    4    7    5
 0.002486692465687185    8    4    7    6
 0.004803183240661243    8    4    7    7
 0.01197671033674317    8    4    8    1
 -0.007451376636722956    8    4    8    2
 -0.002577339762922146    8    4    8    3
 0.008457722079226009    8    4    8    4
 0.002319272278876239    8    5    1    1
 0.002926285277871316    8    5    2    1
 0.00733763603626254    8    5    2    2
 0.001458568352948249    8    5    3    1
 -0.0003814825516254873    8    5    3    2
 0.006527260817839824    8    5    3    3
 -0.002424394457678507    8    5    4    1
 -0.0002565443859306876    8    5    4    2
 -0.001136809707129337    8    5    4    3
 0.01456449102842379    8    5    4    4
 -0.002832839807401732    8    5    5    1
 -0.0005556872693819742    8    5    5    2
 -0.0005206097638940658    8    5    5    3
 0.004258253671132724    8    5    5    4
 -0.00224528913232197    8    5    5    5
 -7.59925247275613e-05    8    5    6    1
 -0.000958425966270552    8    5    6    2
 0.004580762971462029    8    5    6    3
 -0.003463866643455452    8    5    6    4
 -0.02409771686139797    8    5    6    5
 0.0004996985007796814    8    5    6    6
 0.00640029717259033    8    5    7    1
 -0.001819977718933032    8    5    7    2
 0.009421664330160093    8    5    7    3
 -0.01135745739501689    8    5    7    4
 -0.0464775694932985    8    5    7    5
 0.000409286936994574    8    5    7    6
 0.01471619972937346    8    5    7    7
 0.00337361835839225    8    5    8    1
 -0.001240410039927651    8    5    8    2
 -0.005278599122192876    8    5    8    3
 0.005491402782570563    8    5    8    4
 0.02539415325521074    8    5    8    5
 0.06002216088907085    8    6    1    1
 -0.02157080323424718    8    6    2    1
 0.03237119308466994    8    6    2    2
 -0.008019491354769726    8    6    3    1
 0.006405330891418721    8    6    3    2
 -0.006965319347932866    8    6    3    3
 0.0062956352898895    8    6    4    1
 -0.002589166672026754    8    6    4    2
 -0.0002653938742957171    8    6    4    3
 0.0237191760376219    8    6    4    4
 0.001075894752979666    8    6    5    1
 -0.002014960099567415    8    6    5    2
 0.003586647440834625    8    6    5    3
 -0.007390346398599243    8    6    5    4
 -0.02633089129024062    8    6    5    5
 -0.001166678295408612    8    6    6    1
 0.004334654701071165    8    6    6    2
 0.002013535296836708    8    6    6    3
 -0.00725303802153567    8    6    6    4
 -0.01222086542742725    8    6    6    5
 0.05742114620457953    8    6    6    6
 -0.009298298100242287    8    6    7    1
 0.00332086807056555    8    6    7    2
 0.002246656115677188    8    6    7    3
 0.003539277683477449    8    6    7    4
 -0.008110638013004691    8    6    7    5
 -0.02331909505193897    8    6    7    6
 -0.001358946719128736    8    6    7    7
 -0.01874177896987869    8    6    8    1
 0.01249872995000589    8    6    8    2
 0.004339802235215462    8    6    8    3
 -0.01120220237691308    8    6    8    4
 -0.005048354977208896    8    6    8    5
 0.04447238337542203    8    6    8    6
 0.1164795325208106    8    7    1    1
 -0.0399928137169925    8    7    2    1
 0.06814947595894451    8    7    2    2
 -0.01238157120703753    8    7    3    1
 0.008984623427646167    8    7    3    2
 0.01322558100364623    8    7    3    3
 0.01273030290520844    8    7    4    1
 -0.006460831062821007    8    7    4    2
 0.001321569443790965    8    7    4    3
 0.04583267185505994    8    7    4    4
 0.00605276901541572    8    7    5    1
 -0.004191723350918913    8    7    5    2
 0.0121302774575689    8    7    5    3
 -0.01651476723883476    8    7    5    4
 -0.04828226095483125    8    7    5    5
 -0.0002557764977904743    8    7    6    1
 0.006644116175062665    8    7    6    2
 0.0002076764011302353    8    7    6    3
 -0.008621971232508312    8    7    6    4
 -0.01652514990451741    8    7    6    5
 0.08874345846571141    8    7    6    6
 -0.01002578370573837    8    7    7    1
 -0.004498537350663389    8    7    7    2
 0.001672648305747453    8    7    7    3
 0.01633419235871833    8    7    7    4
 -0.003852393277755578    8    7    7    5
 -0.06156214241891476    8    7    7    6
 0.01541129415260496    8    7    7    7
 0.002576306572682156    8    7    8    1
 -0.007174436764075689    8    7    8    2
 0.005704858656583132    8    7    8    3
 -0.002481515880719268    8    7    8    4
 -0.009119431165633282    8    7    8    5
 0.01623255494916302    8    7    8    6
 0.0656539271452931    8    7    8    7
 0.5009138811355435    8    8    1    1
 -0.1241184015420302    8    8    2    1
 0.3560704439281935    8    8    2    2
 -0.03379964209937004    8    8    3    1
 0.02354135500798646    8    8    3    2
 0.2221903182895072    8    8    3    3
 0.03390059539572603    8    8    4    1
 -0.0199254252993591    8    8    4    2
 -0.004934542471756588    8    8    4    3
 0.3103906355931669    8    8    4    4
 0.003405631628050888    8    8    5    1
 -0.007863810482753086    8    8    5    2
 0.0005232393396310555    8    8    5    3
 -0.006851189364453655    8    8    5    4
 0.1990276268490192    8    8    5    5
 -0.0009790885770026214    8    8    6    1
 0.02332299683204694    8    8    6    2
 0.006761005057733142    8    8    6    3
 -0.03922515227489907    8    8    6    4
 -0.05095784153308046    8    8    6    5
 0.4688110880641936    8    8    6    6
 -0.01106607336358212    8    8    7    1
 -0.008187821631557735    8    8    7    2
 0.01703556087852795    8    8    7    3
 0.01334860257027964    8    8    7    4
 -0.05038914239050934    8    8    7    5
 -0.110045600477359    8    8    7    6
 0.3276707299256826    8    8    7    7
 -0.004656567867326239    8    8    8    1
 -0.007779702271379484    8    8    8    2
 0.006041845696823251    8    8    8    3
 -0.005280917401493879    8    8    8    4
 0.01091336605208958    8    8    8    5
 0.05575946812009915    8    8    8    6
 0.09980236775457446    8    8    8    7
 0.5119831290161777    8    8    8    8
 -0.007606780233673199    9    1    1    1
 -0.001407369100142328    9    1    2    1
 0.01070128505732163    9    1    2    2
 -0.0003437273173899088    9    1    3    1
 0.001771671559378884    9    1    3    2
 -0.003924267069941961    9    1    3    3
 -0.01882932722810352    9    1    4    1
 0.01100816333291264    9    1    4    2
 0.002376875836240664    9    1    4    3
 -0.0006646615785559219    9    1    4    4
 0.005330216506169709    9    1    5    1
 -0.001772347699603078    9    1    5    2
 -0.001138922441951967    9    1    5    3
 -0.001000342648168746    9    1    5    4
 -0.0008326726471632618    9    1    5    5
 -0.007958999701564986    9    1    6    1
 -0.0001398437302011744    9    1    6    2
 0.0006189310919028266    9    1    6    3
 -0.0008984452160405164    9    1    6    4
 0.0009166074588118599    9    1    6    5
 -0.00333149636004105    9    1    6    6
 -0.005270031911680973    9    1    7    1
 0.003949840482434431    9    1    7    2
 0.0005272422585778644    9    1    7    3
 0.001026682602320957    9    1    7    4
 -0.0001146462668058946    9    1    7    5
 0.001948905503606971    9    1    7    6
 -0.00271607188262509    9    1    7    7
 0.003758867495881095    9    1    8    1
 -0.002071301663942766    9    1    8    2
 -0.0009536134792971451    9    1    8    3
 0.001182556062328932    9    1    8    4
 0.0005350951574470907    9    1    8    5
 -0.003087449236319806    9    1    8    6
 -0.0002616674694648873    9    1    8    7
 -0.003922628251933248    9    1    8    8
 0.07715605257348802    9    1    9    1
 -0.00589605684595887    9    2    1    1
 0.03647780500201567    9    2    2    1
 0.03078525733450237    9    2    2    2
 0.004327385439985265    9    2    3    1
 0.0004383816494620057    9    2    3    2
 -0.002778551122120475    9    2    3    3
 0.01640866074073626    9    2    4    1