 &FCI NORB=   4,NELEC= 6,MS2=0,
  ORBSYM=1,1,1,1,
  ISYM=1,
 &END
 0.4105103115557123    1    1    1    1
 -0.02547324276315264    2    1    1    1
 0.2474529800639034    2    1    2    1
 0.4073799608273992    2    2    1    1
 0.0274190632889869    2    2    2    1
 0.416468113544577    2    2    2    2
 -0.02108613993902369    3    1    1    1
 0.003224284798284041    3    1    2    1
 -0.02155265410618708    3    1    2    2
 0.006028881802989647    3    1    3    1
 0.001498149062986808    3    2    1    1
 -0.02605246274262957    3    2    2    1
 -0.004189956055526495    3    2    2    2
 0.000635256732593435    3    2    3    1
 0.003805591372942996    3    2    3    2
 0.1988614034346165    3    3    1    1
 0.02682552445744565    3    3    2    1
 0.1995553262370727    3    3    2    2
 0.03286362601364617    3    3    3    1
 0.002787057207944449    3    3    3    2
 0.5776154150945636    3    3    3    3
 0.002649365400763224    4    1    1    1
 -0.005389006020396539    4    1    2    1
 0.001958074355154773    4    1    2    2
 -0.00131702935099448    4    1    3    1
 0.000706319239550911    4    1    3    2
 -0.004270457169674516    4    1    3    3
 0.001111037714937596    4    1    4    1
 -0.005329643127909478    4    2    1    1
 0.003956352548977012    4    2    2    1
 -0.004665790679709878    4    2    2    2
 0.0006945023025812622    4    2    3    1
 -0.0009699323872285132    4    2    3    2
 -0.0003536291833349959    4    2    3    3
 -0.0005305966022116803    4    2    4    1
 0.0009153732177900563    4    2    4    2
 -0.01033072553109227    4    3    1    1
 0.006885153233393627    4    3    2    1
 -0.008673532560436382    4    3    2    2
 0.002047119453686543    4    3    3    1
 0.0001536208294556315    4    3    3    2
 0.03338017776087661    4    3    3    3
 0.002024908156514474    4    3    4    1
 2.499461696160634e-05    4    3    4    2
 0.05365240233971953    4    3    4    3
 0.1676689108259775    4    4    1    1
 0.01415185535054714    4    4    2    1
 0.1676716361566986    4    4    2    2
 0.02046464522232405    4    4    3    1
 0.001595090451521088    4    4    3    2
 0.4190057651021523    4    4    3    3
 -0.0006851248882240035    4    4    4    1
 1.292267665828004e-05    4    4    4    2
 0.07471454823133072    4    4    4    3
 0.4327042727875599    4    4    4    4
 17.9292852310784    1    1  0  0
 0.1625735727272213    2    1  0  0
 17.59814179803907    2    2  0  0
 -0.5055154972242004    3    1  0  0
 -0.04499312616432122    3    2  0  0
 10.51538217462893    3    3  0  0
 -0.08000675997547502    4    1  0  0
 -0.091684563082085    4    2  0  0
 -1.226440170487788    4    3  0  0
 7.866506250153346    4    4  0  0
 -1533.973985418406  0  0  0  0
