 &FCI NORB=   4,NELEC= 6,MS2=0,
  ORBSYM=1,1,1,1,
  ISYM=1,
 &END
 0.7363271163707272    1    1    1    1
 0.06841449686294232    2    1    1    1
 0.01156922275817637    2    1    2    1
 0.2005727187989549    2    2    1    1
 -0.02002367586272909    2    2    2    1
 0.3699866480618422    2    2    2    2
 0.007868276111381285    3    1    1    1
 0.001677011866892574    3    1    2    1
 -0.0006511987294367753    3    1    2    2
 0.003058069370624073    3    1    3    1
 0.01802931843891781    3    2    1    1
 0.001709989395844018    3    2    2    1
 -0.01206239234939317    3    2    2    2
 -0.02087044350860799    3    2    3    1
 0.1779753240783681    3    2    3    2
 0.1883562800545932    3    3    1    1
 -0.01981716657531782    3    3    2    1
 0.3521604900121472    3    3    2    2
 -0.003419282781566003    3    3    3    1
 0.01027983194198948    3    3    3    2
 0.345005161884795    3    3    3    3
 -0.09239944065867645    4    1    1    1
 -0.01237099336753072    4    1    2    1
 -0.0109452930535296    4    1    2    2
 -0.004088257590897908    4    1    3    1
 0.00793901992198412    4    1    3    2
 -0.006770772715778159    4    1    3    3
 0.1201377770448492    4    1    4    1
 -0.02280031048384195    4    2    1    1
 -0.003871439526643968    4    2    2    1
 0.006894251344468117    4    2    2    2
 -0.001156668460644308    4    2    3    1
 0.006680780849883937    4    2    3    2
 0.009129910790456369    4    2    3    3
 0.01593165295934169    4    2    4    1
 0.004111424258522167    4    2    4    2
 -0.006107281177895639    4    3    1    1
 -0.00133075321354035    4    3    2    1
 0.005979085249043987    4    3    2    2
 -0.001376654169919879    4    3    3    1
 0.01200041286255457    4    3    3    2
 0.00742199668695921    4    3    3    3
 0.001809540012534081    4    3    4    1
 0.001590078561923067    4    3    4    2
 0.002153574324125969    4    3    4    3
 0.5730847637035631    4    4    1    1
 0.0482197746035213    4    4    2    1
 0.1865897093200815    4    4    2    2
 0.003342041196358416    4    4    3    1
 0.02268433904712416    4    4    3    2
 0.179455320595689    4    4    3    3
 -0.02160437625034471    4    4    4    1
 -0.01311767475450929    4    4    4    2
 -0.004638678134606583    4    4    4    3
 0.5315413255837743    4    4    4    4
 -2.661428594949716    1    1  0  0
 -0.02962689086355175    2    1  0  0
 -2.126057179525251    2    2  0  0
 -0.001436591011004573    3    1  0  0
 -0.03259928428494019    3    2  0  0
 -1.8195971929438    3    3  0  0
 0.1225833670932579    4    1  0  0
 0.02007595662349271    4    2  0  0
 -0.004573065863102396    4    3  0  0
 -1.401641083896314    4    4  0  0
 -3038.455418218898  0  0  0  0
