 &FCI NORB=  27,NELEC=38,MS2=0,
  ORBSYM=1,1,1,1,1,1,1,1,1,1,1,1,1,1,1,1,1,1,1,1,1,1,1,1,1,1,1,
  ISYM=1,
 &END
 0.8469137070690347    1    1    1    1
 0.0250592837661082    2    1    1    1
 0.005346631889135035    2    1    2    1
 0.3148868976372491    2    2    1    1
 -0.009084065165119531    2    2    2    1
 0.4426496228777036    2    2    2    2
 0.01258824261011326    3    1    1    1
 -0.000201544086507811    3    1    2    1
 0.00467861232458146    3    1    2    2
 0.0005158486233448282    3    1    3    1
 -0.04298106024274342    3    2    1    1
 7.229793175427338e-05    3    2    2    1
 -0.05758281137713909    3    2    2    2
 -0.002492589739569897    3    2    3    1
 0.02643693832254984    3    2    3    2
 0.1175506325913703    3    3    1    1
 -0.008487957562381139    3    3    2    1
 0.1841423581603311    3    3    2    2
 -0.006460156182951479    3    3    3    1
 0.06691337773319889    3    3    3    2
 0.5732557742807096    3    3    3    3
 -0.0008375732912331589    4    1    1    1
 -1.186329419978285e-05    4    1    2    1
 -0.0001741858708186526    4    1    2    2
 -3.065222138385838e-05    4    1    3    1
 0.0001293656431224926    4    1    3    2
 0.0002923022721092747    4    1    3    3
 0.0002252304030764009    4    1    4    1
 0.002424905343981126    4    2    1    1
 2.172025576089882e-05    4    2    2    1
 0.003247744045918199    4    2    2    2
 0.0001185812976710339    4    2    3    1
 -0.001216918079955771    4    2    3    2
 -0.001161103811104046    4    2    3    3
 -0.0009576860618618656    4    2    4    1
 0.006469632859199471    4    2    4    2
 -0.0009931359529218042    4    3    1    1
 2.27840061243178e-05    4    3    2    1
 -0.001437478074567793    4    3    2    2
 -7.168344786925344e-05    4    3    3    1
 0.0008732771062101492    4    3    3    2
 0.004113864846109681    4    3    3    3
 -0.0004590011111824254    4    3    4    1
 0.003393701024634599    4    3    4    2
 0.01071099073393396    4    3    4    3
 0.1308154901810658    4    4    1    1
 -0.006596750191894332    4    4    2    1
 0.182326859419029    4    4    2    2
 -0.0010673321357061    4    4    3    1
 0.007294465405507405    4    4    3    2
 0.2003762876194866    4    4    3    3
 0.0006862440779378913    4    4    4    1
 -0.004767064011118941    4    4    4    2
 -0.004062598869660643    4    4    4    3
 0.26876921841531    4    4    4    4
 -0.005144599956021307    5    1    1    1
 -0.0002431017439842413    5    1    2    1
 -0.0005101677955781918    5    1    2    2
 -0.0001874567776291494    5    1    3    1
 0.0007850426587747679    5    1    3    2
 0.00222789838715748    5    1    3    3
 1.476900629456055e-05    5    1    4    1
 -6.544079472328685e-05    5    1    4    2
 7.080270787758228e-05    5    1    4    3
 0.00194990594584947    5    1    4    4
 0.0003005608996752946    5    1    5    1
 0.01407387713288306    5    2    1    1
 0.0001090522701737403    5    2    2    1
 0.02084758916697369    5    2    2    2
 0.0007258018734612437    5    2    3    1
 -0.00758911690758006    5    2    3    2
 -0.00639211639958166    5    2    3    3
 -6.906403488831038e-05    5    2    4    1
 0.0006865895619933842    5    2    4    2
 -0.0005499760654249221    5    2    4    3
 -0.008797362440701175    5    2    4    4
 -0.001125350618446866    5    2    5    1
 0.008571680373174536    5    2    5    2
 -0.006120114561294585    5    3    1    1
 0.0001601664786070641    5    3    2    1
 -0.008848713249668462    5    3    2    2
 -0.000541445694383746    5    3    3    1
 0.006744550842985628    5    3    3    2
 0.03390481164946965    5    3    3    3
 8.160037383368331e-05    5    3    4    1
 -0.0006442661376329928    5    3    4    2
 -0.001222246947350579    5    3    4    3
 -0.003505042195823601    5    3    4    4
 2.500064564068497e-05    5    3    5    1
 -0.0003502543118831586    5    3    5    2
 0.004615456347858898    5    3    5    3
 0.002578719903718604    5    4    1    1
 2.487471678229365e-05    5    4    2    1
 0.003186399869449972    5    4    2    2
 0.0001285961420359835    5    4    3    1
 -0.001424352114403407    5    4    3    2
 -0.004954612042969269    5    4    3    3
 0.001553346927135251    5    4    4    1
 -0.01142735619146434    5    4    4    2
 -0.01353770997405494    5    4    4    3
 0.03755355877700309    5    4    4    4
 -0.0002969505295401905    5    4    5    1
 0.001606486087447914    5    4    5    2
 0.001840128315057192    5    4    5    3
 0.1355459799298372    5    4    5    4
 0.1350740949380451    5    5    1    1
 -0.006400676143871326    5    5    2    1
 0.1861520187545144    5    5    2    2
 -0.0004906630618375383    5    5    3    1
 0.001479868811298052    5    5    3    2
 0.1743699556005337    5    5    3    3
 -0.0002371206194847026    5    5    4    1
 0.001913982214398369    5    5    4    2
 0.003119266551964373    5    5    4    3
 0.2488088168309419    5    5    4    4
 0.001715159553671804    5    5    5    1
 -0.007366033887769796    5    5    5    2
 -0.006665317946249079    5    5    5    3
 -0.03603051738443982    5    5    5    4
 0.2729888991103685    5    5    5    5
 -0.04419652756240129    6    1    1    1
 0.003441068404252305    6    1    2    1
 -0.0311988607711789    6    1    2    2
 -0.0009638196344325398    6    1    3    1
 0.005105464431061909    6    1    3    2
 -0.00956867805401051    6    1    3    3
 -9.494288680527232e-05    6    1    4    1
 -0.0003389248900654857    6    1    4    2
 0.0001665779251161343    6    1    4    3
 -0.008925118019856048    6    1    4    4
 -0.001924204885712374    6    1    5    1
 -0.00240063673058825    6    1    5    2
 0.0007579592371557381    6    1    5    3
 -0.0003027040525118333    6    1    5    4
 -0.008981241875209201    6    1    5    5
 0.06580135549991091    6    1    6    1
 -0.03053455296715646    6    2    1    1
 0.00156977075285844    6    2    2    1
 -0.08288850533379714    6    2    2    2
 -0.001311530872437375    6    2    3    1
 0.02138031873718974    6    2    3    2
 0.002788315779930634    6    2    3    3
 0.0001044989233896009    6    2    4    1
 -0.00190210787313866    6    2    4    2
 -2.282445962692513e-05    6    2    4    3
 0.008258953052988563    6    2    4    4
 0.0002107855903091312    6    2    5    1
 -0.01123097832631302    6    2    5    2
 0.002363798812230588    6    2    5    3
 0.0009632410403632883    6    2    5    4
 0.005622072849265601    6    2    5    5
 0.02062116200905481    6    2    6    1
 0.03649254899299694    6    2    6    2
 0.0139365631440108    6    3    1    1
 -0.0003604580300040749    6    3    2    1
 0.025339335914494    6    3    2    2
 0.0004953043926582451    6    3    3    1
 -0.008763820553524107    6    3    3    2
 -0.03111518405660824    6    3    3    3
 4.166677569902361e-05    6    3    4    1
 -0.0001538983409209917    6    3    4    2
 -0.002276736266620971    6    3    4    3
 0.001309236089618562    6    3    4    4
 -6.211198679888631e-05    6    3    5    1
 0.001828372846764961    6    3    5    2
 -0.00456756391630462    6    3    5    3
 0.001647017803216912    6    3    5    4
 0.002750075292891899    6    3    5    5
 -0.002638875569567712    6    3    6    1
 -0.007211325744946419    6    3    6    2
 0.008161799592139656    6    3    6    3
 -0.001242433049238413    6    4    1    1
 0.0001991678397126114    6    4    2    1
 -0.002980629998398987    6    4    2    2
 0.0001019036651499714    6    4    3    1
 -0.0009749414319154695    6    4    3    2
 -0.008757463039828092    6    4    3    3
 -0.0007139072632495742    6    4    4    1
 0.004024715101413659    6    4    4    2
 -0.0001569243970265051    6    4    4    3
 0.003414046107143528    6    4    4    4
 -0.0001110286929824551    6    4    5    1
 0.0004363857268312957    6    4    5    2
 -0.0004116186368555274    6    4    5    3
 0.01096226302611175    6    4    5    4
 -0.001110185212977765    6    4    5    5
 0.0001295480491096826    6    4    6    1
 0.0008166297133815874    6    4    6    2
 0.0003105977132870966    6    4    6    3
 0.007521590400382396    6    4    6    4
 -0.0214472626980843    6    5    1    1
 0.0002031717929189669    6    5    2    1
 -0.02276825109161217    6    5    2    2
 -0.0001707131386750468    6    5    3    1
 0.001418585187455513    6    5    3    2
 -0.01763430043551773    6    5    3    3
 -5.12640463692604e-05    6    5    4    1
 0.0001493500526891494    6    5    4    2
 -4.442440778448407e-05    6    5    4    3
 0.003835485742908822    6    5    4    4
 -0.0005376054766980983    6    5    5    1
 0.002914095166287816    6    5    5    2
 -0.0004143379246291116    6    5    5    3
 0.001437281493974746    6    5    5    4
 0.006531325052118134    6    5    5    5
 -0.000708843063382347    6    5    6    1
 0.004472509891841896    6    5    6    2
 -0.0008877141162604827    6    5    6    3
 0.002255954182171937    6    5    6    4
 0.00918497280290999    6    5    6    5
 0.5146871825008107    6    6    1    1
 0.01944793464878967    6    6    2    1
 0.2682965048447566    6    6    2    2
 0.005640937769430525    6    6    3    1
 -0.02694237341459912    6    6    3    2
 0.1413805405265117    6    6    3    3
 -0.0005198238856589264    6    6    4    1
 0.001299258868544539    6    6    4    2
 -0.0008106263477429959    6    6    4    3
 0.149171034570003    6    6    4    4
 -0.004811798470685545    6    6    5    1
 0.007697942646885086    6    6    5    2
 -0.003767585343172355    6    6    5    3
 0.006224656891547385    6    6    5    4
 0.1497303002084892    6    6    5    5
 0.04827762176536288    6    6    6    1
 -0.003820929026026897    6    6    6    2
 0.009049713218080974    6    6    6    3
 -0.0004759292347093986    6    6    6    4
 -0.01806420025974079    6    6    6    5
 0.4750934057716238    6    6    6    6
 -0.008212474561012385    7    1    1    1
 0.0003259609857229073    7    1    2    1
 -0.004293570450495245    7    1    2    2
 -0.0001954672645299531    7    1    3    1
 0.0008775491942582809    7    1    3    2
 -0.0006584611974235918    7    1    3    3
 6.835045232090546e-06    7    1    4    1
 -0.0003087109219318291    7    1    4    2
 -0.0006895128697838377    7    1    4    3
 0.0002616358612471792    7    1    4    4
 -0.0001646358354925611    7    1    5    1
 -0.0004000609853299685    7    1    5    2
 0.0002281123339683474    7    1    5    3
 0.0027393380061088    7    1    5    4
 -0.001308034620691375    7    1    5    5
 0.007283364625259578    7    1    6    1
 0.002568155543762293    7    1    6    2
 -0.0002600848529197708    7    1    6    3
 0.0003042277911842255    7    1    6    4
 4.946703334501369e-05    7    1    6    5
 0.003637394784903816    7    1    6    6
 0.0009409444765195039    7    1    7    1
 0.002900644254132133    7    2    1    1
 0.000100471847043622    7    2    2    1
 0.000142038796473964    7    2    2    2
 8.539905053895482e-05    7    2    3    1
 -0.0001960732691364216    7    2    3    2
 -0.0005923137983156031    7    2    3    3
 -0.0002138704109190767    7    2    4    1
 0.001486464480917285    7    2    4    2
 0.005988770165020646    7    2    4    3
 -0.005213590857349326    7    2    4    4
 -6.327233449739946e-05    7    2    5    1
 -0.0001478973978919496    7    2    5    2
 -0.0009597308390048328    7    2    5    3
 -0.01555058044974415    7    2    5    4
 0.003374921093708474    7    2    5    5
 0.001408650253325999    7    2    6    1
 -1.376163539518627e-05    7    2    6    2
 -0.0008746510756945059    7    2    6    3
 -0.001638110152270472    7    2    6    4
 -0.0002505898609380727    7    2    6    5
 0.002898551214958541    7    2    6    6
 -0.0005538521730715626    7    2    7    1
 0.004982568851496436    7    2    7    2
 -0.0005997246471103908    7    3    1    1
 1.379148454691642e-05    7    3    2    1
 -0.0003127549276066127    7    3    2    2
 -2.668377559174857e-05    7    3    3    1
 0.0001667944283595623    7    3    3    2
 0.001333049192400572    7    3    3    3
 -0.0009339582442508946    7    3    4    1
 0.007502746364872623    7    3    4    2
 0.02710903135666533    7    3    4    3
 -0.004477724022519468    7    3    4    4
 0.0001377529691418968    7    3    5    1
 -0.001030785427653023    7    3    5    2
 -0.004302520572362942    7    3    5    3
 -0.0161547718911205    7    3    5    4
 0.004337446139954351    7    3    5    5
 6.514222444212752e-05    7    3    6    1
 -0.000931495749293648    7    3    6    2
 -0.004677904849810687    7    3    6    3
 -0.0003351447802215377    7    3    6    4
 -0.0001026702907538757    7    3    6    5
 -0.0002971755581295176    7    3    6    6
 -0.001519119947677739    7    3    7    1
 0.01399580736140017    7    3    7    2
 0.073626382913523    7    3    7    3
 -0.009190033008160261    7    4    1    1
 -0.001258591879467305    7    4    2    1
 -0.001510236275126701    7    4    2    2
 -0.001692154567369244    7    4    3    1
 0.01748913687646693    7    4    3    2
 0.09584682640468983    7    4    3    3
 0.0003097391238693159    7    4    4    1
 -0.001521351381381399    7    4    4    2
 0.0008576378837756703    7    4    4    3
 -0.006019385154472822    7    4    4    4
 0.001129157513126166    7    4    5    1
 -0.005602286513058933    7    4    5    2
 0.006967188847770862    7    4    5    3
 -0.006151395979368799    7    4    5    4
 -0.01602885083971604    7    4    5    5
 -0.0002235657943057308    7    4    6    1
 0.001080257723773279    7    4    6    2
 -0.006939037434486286    7    4    6    3
 -0.006776894799816168    7    4    6    4
 -0.0134018860146587    7    4    6    5
 -0.006259466086724147    7    4    6    6
 -6.371002879080418e-05    7    4    7    1
 0.0003897835842864607    7    4    7    2
 0.0004686206728652977    7    4    7    3
 0.04488274452159408    7    4    7    4
 -0.0008535226569616478    7    5    1    1
 2.4253793979829e-05    7    5    2    1
 -0.0007818550484870465    7    5    2    2
 0.0002213041513501613    7    5    3    1
 -0.002380078155800051    7    5    3    2
 -0.01437699965066785    7    5    3    3
 0.0004465126780043484    7    5    4    1
 -0.001555198892099113    7    5    4    2
 0.002537895216368444    7    5    4    3
 -0.009658572596467265    7    5    4    4
 -0.0001176600438990212    7    5    5    1
 0.0006686877097075716    7    5    5    2
 -0.001634102755996847    7    5    5    3
 -0.03949313891672597    7    5    5    4
 0.01375353423836786    7    5    5    5
 -0.0001656616140053021    7    5    6    1
 -0.0005302603746740464    7    5    6    2
 0.0006977838043752205    7    5    6    3
 -0.01106911844811617    7    5    6    4
 0.001211679484982152    7    5    6    5
 -0.002657632138413582    7    5    6    6
 -0.0009555535874967327    7    5    7    1
 0.005306805340962757    7    5    7    2
 0.005700090964940872    7    5    7    3
 -0.002351536745856474    7    5    7    4
 0.02883531345423362    7    5    7    5
 0.03956601315763318    7    6    1    1
 0.002851963681634078    7    6    2    1
 0.005589016668186818    7    6    2    2
 0.0008359727818780525    7    6    3    1
 -0.004737385294137256    7    6    3    2
 -0.01832529859219335    7    6    3    3
 -0.0001356128503788639    7    6    4    1
 0.0009490899532849906    7    6    4    2
 0.0004885545156443931    7    6    4    3
 -0.01550048154387525    7    6    4    4
 -0.0006419270885594849    7    6    5    1
 0.0009710323943228696    7    6    5    2
 -0.001362197223212396    7    6    5    3
 -0.02765105453267728    7    6    5    4
 0.0009850527572980536    7    6    5    5
 0.006356696895099363    7    6    6    1
 -0.0001625082814754259    7    6    6    2
 0.001691267338679904    7    6    6    3
 -0.003762801875882146    7    6    6    4
 -0.001722072311829056    7    6    6    5
 0.03251206878850138    7    6    6    6
 -0.0002274325999792491    7    6    7    1
 0.003933632023578959    7    6    7    2
 -0.002169075755450688    7    6    7    3
 -0.002344677639775952    7    6    7    4
 0.01151387911803077    7    6    7    5
 0.01299826354186658    7    6    7    6
 0.1217734239023206    7    7    1    1
 -0.006489642781924113    7    7    2    1
 0.1702400669512943    7    7    2    2
 -0.003910927220250221    7    7    3    1
 0.03922854441972684    7    7    3    2
 0.3849044362187179    7    7    3    3
 0.0002292727332751585    7    7    4    1
 -0.001219657696055351    7    7    4    2
 0.001707168255652786    7    7    4    3
 0.2187868276089836    7    7    4    4
 0.001556641554965207    7    7    5    1
 -0.005338056354730711    7    7    5    2
 0.01605536102160112    7    7    5    3
 -0.001178930362634414    7    7    5    4
 0.2036711392975459    7    7    5    5
 -0.007368453376554326    7    7    6    1
 0.007302407794506791    7    7    6    2
 -0.01592926488667644    7    7    6    3
 -0.003803003802223226    7    7    6    4
 -0.003590654885745802    7    7    6    5
 0.1428194260805549    7    7    6    6
 -0.0003480645695970834    7    7    7    1
 -0.0009693995623080015    7    7    7    2
 0.0002223136056319769    7    7    7    3
 0.04870627984224797    7    7    7    4
 -0.007384237984279824    7    7    7    5
 -0.0142422643941948    7    7    7    6
 0.3188444472222551    7    7    7    7
 0.08043492553000828    8    1    1    1
 -0.001702576369532799    8    1    2    1
 0.03617522369674272    8    1    2    2
 0.0020316311019477    8    1    3    1
 -0.008779435083927487    8    1    3    2
 0.0001903826387242632    8    1    3    3
 -5.123822822844149e-05    8    1    4    1
 0.0006961260582560808    8    1    4    2
 -0.0002118359100103108    8    1    4    3
 -0.0002837289409248513    8    1    4    4
 0.0005834598509846306    8    1    5    1
 0.004489676436559125    8    1    5    2
 -0.001080452454641146    8    1    5    3
 0.000241291507783618    8    1    5    4
 0.0004498217402738366    8    1    5    5
 -0.04746619888933894    8    1    6    1
 -0.01882910668770854    8    1    6    2
 0.002934567871586932    8    1    6    3
 -0.0001718827127889049    8    1    6    4
 -0.0009804895064624564    8    1    6    5
 -0.007934679057214036    8    1    6    6
 -0.005586890518089924    8    1    7    1
 -0.0006199057431237201    8    1    7    2
 -0.0001232572594570339    8    1    7    3
 -0.0008155571204158235    8    1    7    4
 0.0001433624236350435    8    1    7    5
 -0.001190087184760054    8    1    7    6
 -0.001101832764696614    8    1    7    7
 0.03922077050890009    8    1    8    1
 -0.07691139623963897    8    2    1    1
 0.0001671989270226135    8    2    2    1
 -0.08816091819922529    8    2    2    2
 -0.00281188818603623    8    2    3    1
 0.02562437364565423    8    2    3    2
 0.01342367313000468    8    2    3    3
 0.0002676601915595248    8    2    4    1
 -0.002219377971282698    8    2    4    2
 0.0007741790943685653    8    2    4    3
 0.01995105436464027    8    2    4    4
 0.001911599959256401    8    2    5    1
 -0.01384879564143805    8    2    5    2
 0.002444263470287961    8    2    5    3
 -0.0006059929131605564    8    2    5    4
 0.01742777737132569    8    2    5    5
 -0.0005101557201224187    8    2    6    1
 0.03264614924987319    8    2    6    2
 -0.007174263464729815    8    2    6    3
 0.0006952374391019436    8    2    6    4
 0.006739008629640695    8    2    6    5
 -0.0589099389773609    8    2    6    6
 0.0005883521977722247    8    2    7    1
 -0.0005077917213695739    8    2    7    2
 0.0009805578649379975    8    2    7    3
 0.002121631563599689    8    2    7    4
 0.0001444979685450464    8    2    7    5
 -0.00677335354716596    8    2    7    6
 0.01748562900000877    8    2    7    7
 -0.01010878001685615    8    2    8    1
 0.04627445869846211    8    2    8    2
 0.02299810158992654    8    3    1    1
 -0.0009212790391916539    8    3    2    1
 0.03137884969754638    8    3    2    2
 0.0007906156572312422    8    3    3    1
 -0.01095624284173062    8    3    3    2
 -0.04514191243010764    8    3    3    3
 -9.931030800918367e-05    8    3    4    1
 0.0008710993310146707    8    3    4    2
 0.001129160212447256    8    3    4    3
 0.002154119966396764    8    3    4    4
 -0.000140241319091282    8    3    5    1
 0.00163249368907643    8    3    5    2
 -0.007518281553029325    8    3    5    3
 -0.0003279193119547531    8    3    5    4
 0.00547815048392339    8    3    5    5
 -0.002364445478213349    8    3    6    1
 -0.007303594712878851    8    3    6    2
 0.01110353325943381    8    3    6    3
 0.000378355812222163    8    3    6    4
 -0.001212926349583482    8    3    6    5
 0.01574514723342828    8    3    6    6
 -0.0004935300399133145    8    3    7    1
 0.001125671148662602    8    3    7    2
 0.0052605448885221    8    3    7    3
 -0.00959567583641192    8    3    7    4
 0.001929314898446482    8    3    7    5
 0.002434166534202161    8    3    7    6
 -0.02259757185549771    8    3    7    7
 0.003561969052308113    8    3    8    1
 -0.008427772878611932    8    3    8    2
 0.0176766793048295    8    3    8    3
 -0.001633136650009028    8    4    1    1
 0.0002857884719892276    8    4    2    1
 -0.004237020498543584    8    4    2    2
 -9.653457514434736e-05    8    4    3    1
 0.001125263294022482    8    4    3    2
 0.002064683278090849    8    4    3    3
 -0.001251313544768215    8    4    4    1
 0.007223016635242458    8    4    4    2
 0.001330683446895665    8    4    4    3
 0.0007283146206209219    8    4    4    4
 -1.083928147405772e-05    8    4    5    1
 -0.000123676414640405    8    4    5    2
 0.0003243397152530086    8    4    5    3
 0.00602805913057964    8    4    5    4
 -0.002404312045066622    8    4    5    5
 0.0004357866002602105    8    4    6    1
 0.001037698866808164    8    4    6    2
 -0.0007534396943359909    8    4    6    3
 0.0103502441888493    8    4    6    4
 0.001255028720946873    8    4    6    5
 -0.0004611317209642974    8    4    6    6
 0.0002670536076231451    8    4    7    1
 -0.001218691686480127    8    4    7    2
 0.001537874050594753    8    4    7    3
 -0.003210050606534427    8    4    7    4
 -0.01599566409391458    8    4    7    5
 -0.004257675417703564    8    4    7    6
 0.001686617695224667    8    4    7    7
 -0.000428798143417524    8    4    8    1
 0.0008565860164538065    8    4    8    2
 -0.0008380527874865687    8    4    8    3
 0.01619062510934954    8    4    8    4
 -0.003707108629312285    8    5    1    1
 0.002680576073330149    8    5    2    1
 -0.02766377020622069    8    5    2    2
 0.0002471554317959761    8    5    3    1
 -0.001270099282610883    8    5    3    2
 -0.03495343604260165    8    5    3    3
 -5.194665522728381e-05    8    5    4    1
 0.0001492632859141987    8    5    4    2
 0.0001181514073573461    8    5    4    3
 -0.004535880195324717    8    5    4    4
 -0.001420272098266888    8    5    5    1
 0.006250994488456755    8    5    5    2
 -0.0007546034660810756    8    5    5    3
 -0.002283087456936451    8    5    5    4
 0.00295797820392698    8    5    5    5
 0.003868317375252824    8    5    6    1
 0.005418280350634029    8    5    6    2
 -0.0004891367154073161    8    5    6    3
 0.001833094379259148    8    5    6    4
 0.01304248419640055    8    5    6    5
 -0.001957371626917809    8    5    6    6
 0.0003372619176099023    8    5    7    1
 0.0005997045479121509    8    5    7    2
 0.0004824567002182228    8    5    7    3
 -0.02225172125714263    8    5    7    4
 0.006094348010986338    8    5    7    5
 0.002209984587332777    8    5    7    6
 -0.01283428709529224    8    5    7    7
 -0.002571421892876606    8    5    8    1
 0.003878197804023336    8    5    8    2
 -0.0005217779551080796    8    5    8    3
 -0.0005528829395861339    8    5    8    4
 0.02205472884080761    8    5    8    5
 -0.2217521250398936    8    6    1    1
 -0.01857884255697981    8    6    2    1
 0.009845740898206421    8    6    2    2
 -0.003535838671546413    8    6    3    1
 0.009407724716087161    8    6    3    2
 0.05424552682359336    8    6    3    3
 0.0004207198101896794    8    6    4    1
 -0.0006383925181660081    8    6    4    2
 -5.97416131139011e-05    8    6    4    3
 0.04441885082124578    8    6    4    4
 0.003867697623061604    8    6    5    1
 -0.002645471523053019    8    6    5    2
 0.00134507055266771    8    6    5    3
 0.001937856732615859    8    6    5    4
 0.0416561575820019    8    6    5    5
 -0.04218102805556993    8    6    6    1
 -0.01496124655546549    8    6    6    2
 -0.0006177058902576815    8    6    6    3
 0.0002533424590472799    8    6    6    4
 0.007244279598166608    8    6    6    5
 -0.1919015773951814    8    6    6    6
 -0.003337695357110964    8    6    7    1
 -0.003050849736537237    8    6    7    2
 -4.266555011603508e-05    8    6    7    3
 0.004449394489728919    8    6    7    4
 -0.0003313957793178715    8    6    7    5
 -0.02587633424555895    8    6    7    6
 0.04493635777555988    8    6    7    7
 0.01191513182776678    8    6    8    1
 0.02639930454336148    8    6    8    2
 -0.004005741032329509    8    6    8    3
 -0.0001665707981718945    8    6    8    4
 -0.007563916244054576    8    6    8    5
 0.1546077730374688    8    6    8    6
 -0.02888480084443421    8    7    1    1
 -0.001860558435691829    8    7    2    1
 -0.005473280253469696    8    7    2    2
 -0.0007158931815811766    8    7    3    1
 0.004556366001909701    8    7    3    2
 0.01888112632147246    8    7    3    3
 -0.0001196741103273412    8    7    4    1
 0.001430914439639889    8    7    4    2
 0.001751224203146377    8    7    4    3
 -0.008136418327586003    8    7    4    4
 0.0004996051516723342    8    7    5    1
 -0.0008699650829306765    8    7    5    2
 0.001313821453538651    8    7    5    3
 -0.04465338619175765    8    7    5    4
 0.0148786148344254    8    7    5    5
 -0.003887839094507235    8    7    6    1
 -0.0005674202273739676    8    7    6    2
 -0.001645221284958035    8    7    6    3
 -0.005909854472113665    8    7    6    4
 0.0004166723539193483    8    7    6    5
 -0.02589229093359657    8    7    6    6
 -0.001396884430927666    8    7    7    1
 0.005430895167106708    8    7    7    2
 -0.002094723493805614    8    7    7    3
 0.006112130059635078    8    7    7    4
 0.01622001190346697    8    7    7    5
 0.009507580320984393    8    7    7    6
 0.01239683888474874    8    7    7    7
 0.0004493787679066082    8    7    8    1
 0.004723144360808141    8    7    8    2
 -0.003003744911636814    8    7    8    3
 -0.005406471474383661    8    7    8    4
 0.0005194808062792635    8    7    8    5
 0.01643997568554052    8    7    8    6
 0.02306328137660077    8    7    8    7
 0.3368214228192604    8    8    1    1
 0.002701578831623745    8    8    2    1
 0.2615755632564948    8    8    2    2
 0.002926068278281189    8    8    3    1
 -0.0140435427782995    8    8    3    2
 0.1940698559148555    8    8    3    3
 -0.0002007926300779898    8    8    4    1
 0.000626123388446434    8    8    4    2
 -0.000561499467627305    8    8    4    3
 0.1872951929843815    8    8    4    4
 -0.001522586484891435    8    8    5    1
 0.003096990046950424    8    8    5    2
 -0.001940106043495891    8    8    5    3
 -0.001579543589829445    8    8    5    4
 0.1896312997654684    8    8    5    5
 0.0111497116463585    8    8    6    1
 -0.009317607321996629    8    8    6    2
 0.006557376911388448    8    8    6    3
 -0.001662708988433069    8    8    6    4
 -0.01187801608004305    8    8    6    5
 0.3137255700958496    8    8    6    6
 0.0003539278786440858    8    8    7    1
 0.001615909879407906    8    8    7    2
 -0.001148154897098866    8    8    7    3
 0.0004813479536549363    8    8    7    4
 0.0003720231836104621    8    8    7    5
 0.01343160032306017    8    8    7    6
 0.1859023279071115    8    8    7    7
 0.004120268824428957    8    8    8    1
 -0.03134741285871864    8    8    8    2
 0.01066982990260822    8    8    8    3
 -0.001821693934390183    8    8    8    4
 -0.008444965546285373    8    8    8    5
 -0.06560674281627778    8    8    8    6
 -0.007659753990725128    8    8    8    7
 0.26009064766676    8    8    8    8
 0.001754982367350953    9    1    1    1
 -4.469673490964926e-05    9    1    2    1
 0.001112602368985655    9    1    2    2
 9.755739868962248e-05    9    1    3    1
 -0.0006930829823318784    9    1    3    2
 -0.001915863411503591    9    1    3    3
 2.623208048042361e-06    9    1    4    1
 1.529751063558164e-05    9    1    4    2
 -4.979841594242578e-05    9    1    4    3
 0.0002042456106678471    9    1    4    4
 -2.070864365300199e-05    9    1    5    1
 0.0002722529700377134    9    1    5    2
 -0.0001900865057271716    9    1    5    3
 0.0002739731141204518    9    1    5    4
 0.0002208335720401542    9    1    5    5
 -0.0007651236593734102    9    1    6    1
 -0.0005979759922527182    9    1    6    2
 0.0001304539207434063    9    1    6    3
 6.012363576058215e-05    9    1    6    4
 0.0001190196651318004    9    1    6    5
 0.0002087230458873575    9    1    6    6
 -9.454303832718659e-05    9    1    7    1
 -4.415689649553276e-05    9    1    7    2
 -3.592172609287174e-05    9    1    7    3
 -0.0004783422727300292    9    1    7    4
 -1.159471266225401e-05    9    1    7    5
 -1.669114119212412e-05    9    1    7    6
 -0.0005885349989974721    9    1    7    7
 0.0007282432225066447    9    1    8    1
 -0.0005863398001038833    9    1    8    2
 0.0001372915816085077    9    1    8    3
 -1.853848971051803e-06    9    1    8    4
 0.0001839619180569982    9    1    8    5
 1.902296287365683e-05    9    1    8    6
 -0.0001633158943497239    9    1    8    7
 0.0002145366021777122    9    1    8    8
 0.000392933486533739    9    1    9    1