 &FCI NORB=  14,NELEC=22,MS2=0,
  ORBSYM=1,1,1,1,1,1,1,1,1,1,1,1,1,1,
  ISYM=1,
 &END
 0.6539762697719655    1    1    1    1
 0.1311129365888965    2    1    1    1
 0.1762098213825151    2    1    2    1
 0.4904204159476002    2    2    1    1
 -0.05285813288783486    2    2    2    1
 0.5355630129503404    2    2    2    2
 0.009072117186371584    3    1    1    1
 0.04058224807808204    3    1    2    1
 -0.0299956291757131    3    1    2    2
 0.01283612318275116    3    1    3    1
 0.07053881066215352    3    2    1    1
 -0.02184674869896712    3    2    2    1
 0.08347389228452896    3    2    2    2
 -0.01739673258579716    3    2    3    1
 0.05976825807515661    3    2    3    2
 0.2148751291420809    3    3    1    1
 -0.0268520661672414    3    3    2    1
 0.2672786848926975    3    3    2    2
 0.01639126555818401    3    3    3    1
 -0.1088287209930236    3    3    3    2
 0.6417180009634004    3    3    3    3
 -0.01766407778578285    4    1    1    1
 -0.006306089217311863    4    1    2    1
 -0.01161686275424322    4    1    2    2
 0.003978194702582073    4    1    3    1
 -0.009354106184291631    4    1    3    2
 0.01354225095627078    4    1    3    3
 0.02172104245684605    4    1    4    1
 -0.03538011293743044    4    2    1    1
 -0.02391746696818728    4    2    2    1
 -0.005208364597443396    4    2    2    2
 -0.007300380849455526    4    2    3    1
 0.005765738663016133    4    2    3    2
 0.0004172466776779199    4    2    3    3
 -0.01665936400627218    4    2    4    1
 0.03793704230286039    4    2    4    2
 0.03658595096807838    4    3    1    1
 -0.002164567866046863    4    3    2    1
 0.03345370105742426    4    3    2    2
 -0.004114521752679297    4    3    3    1
 0.02700964736397979    4    3    3    2
 -0.06642079908102688    4    3    3    3
 0.004408720822584975    4    3    4    1
 -0.01065056350205319    4    3    4    2
 0.05492744551823461    4    3    4    3
 0.3477635953824124    4    4    1    1
 -0.01824923410362494    4    4    2    1
 0.3648265584451015    4    4    2    2
 0.002482287858767135    4    4    3    1
 -0.005496606005608785    4    4    3    2
 0.3666433300500545    4    4    3    3
 0.03282508764122097    4    4    4    1
 -0.03411493333620093    4    4    4    2
 0.03133759572837876    4    4    4    3
 0.4676525048934044    4    4    4    4
 -0.02600387812859395    5    1    1    1
 0.01445710636767859    5    1    2    1
 -0.02716198152607776    5    1    2    2
 0.005351443799025779    5    1    3    1
 -0.004361232851392794    5    1    3    2
 -0.006339255273440418    5    1    3    3
 -0.008000053511013917    5    1    4    1
 0.02317224803686807    5    1    4    2
 0.005860098351020115    5    1    4    3
 -0.01006566834164477    5    1    4    4
 0.03521011101071564    5    1    5    1
 0.04705193820201593    5    2    1    1
 0.00871885721148102    5    2    2    1
 0.02726299400471376    5    2    2    2
 0.003401363138599198    5    2    3    1
 -0.0008457504590030796    5    2    3    2
 0.01391569772923891    5    2    3    3
 0.02490768607562461    5    2    4    1
 -0.04122194126483451    5    2    4    2
 -0.01242972021909733    5    2    4    3
 0.02575521183284312    5    2    4    4
 -0.04381649084840646    5    2    5    1
 0.0819262268244101    5    2    5    2
 0.02696512748737802    5    3    1    1
 0.01016926485612651    5    3    2    1
 0.01134930713381356    5    3    2    2
 0.003736026835837126    5    3    3    1
 -0.001275131665435785    5    3    3    2
 0.001766687486788881    5    3    3    3
 0.01302683440465208    5    3    4    1
 -0.02465397871430851    5    3    4    2
 0.02555280972721936    5    3    4    3
 0.02345548348061011    5    3    4    4
 -0.01310813741746085    5    3    5    1
 0.02318873703297407    5    3    5    2
 0.03248820755330615    5    3    5    3
 -0.03040281943488837    5    4    1    1
 0.06183746832944177    5    4    2    1
 -0.09191198379315565    5    4    2    2
 0.02648685629525638    5    4    3    1
 -0.05556385695880835    5    4    3    2
 0.07292460206826318    5    4    3    3
 0.01913148751821044    5    4    4    1
 -0.02059546738237145    5    4    4    2
 -0.01531746068546694    5    4    4    3
 0.03021194536299439    5    4    4    4
 0.001620259734496672    5    4    5    1
 0.02036578694758542    5    4    5    2
 0.012394853159363    5    4    5    3
 0.09197489941818342    5    4    5    4
 0.3781176019096113    5    5    1    1
 -0.1069297019332178    5    5    2    1
 0.4828621544786521    5    5    2    2
 -0.0360632044569129    5    5    3    1
 0.06447725019942932    5    5    3    2
 0.2946655882297411    5    5    3    3
 -0.005551727946405098    5    5    4    1
 0.01216819397982743    5    5    4    2
 0.0292218089214695    5    5    4    3
 0.3743500211965347    5    5    4    4
 -0.01557671541169128    5    5    5    1
 -0.003141352104162874    5    5    5    2
 -0.001608757254597398    5    5    5    3
 -0.09640915185003776    5    5    5    4
 0.5023997967685627    5    5    5    5
 -0.02027239344641901    6    1    1    1
 0.004185104952261374    6    1    2    1
 -0.01620098757063031    6    1    2    2
 0.004310600556568658    6    1    3    1
 -0.005514445477352594    6    1    3    2
 0.001651812633284514    6    1    3    3
 0.006246700189001484    6    1    4    1
 0.002385336080597732    6    1    4    2
 0.001207344475827905    6    1    4    3
 0.007750605529471015    6    1    4    4
 0.01202959300222606    6    1    5    1
 -0.006783394468283198    6    1    5    2
 -0.002654788401944634    6    1    5    3
 0.008399881789343533    6    1    5    4
 -0.009743390272051537    6    1    5    5
 0.01117078805995142    6    1    6    1
 0.01378295381437764    6    2    1    1
 0.001407361969339568    6    2    2    1
 0.007197120073472561    6    2    2    2
 0.0006191159458114684    6    2    3    1
 -0.001223838121229138    6    2    3    2
 0.01125728903716957    6    2    3    3
 0.004070690840113614    6    2    4    1
 -0.005743429132736883    6    2    4    2
 0.007157605847171834    6    2    4    3
 0.002691590762464124    6    2    4    4
 -0.007269720119858694    6    2    5    1
 0.01267215257927907    6    2    5    2
 0.01535395280908656    6    2    5    3
 0.004081292440220426    6    2    5    4
 0.0001866026433719188    6    2    5    5
 -0.00577659839035556    6    2    6    1
 0.01751429892774934    6    2    6    2
 0.0138485645008344    6    3    1    1
 0.001274772096884389    6    3    2    1
 0.007045816773145709    6    3    2    2
 -0.002602676227030931    6    3    3    1
 0.0136491146854095    6    3    3    2
 -0.03558070317595337    6    3    3    3
 -0.000425047969179957    6    3    4    1
 0.006134069805087565    6    3    4    2
 -0.02689070054125789    6    3    4    3
 0.00923590183224441    6    3    4    4
 -0.005301244993295008    6    3    5    1
 0.01561581047208976    6    3    5    2
 -0.03362036367911552    6    3    5    3
 0.002730856009637503    6    3    5    4
 0.005609537853020962    6    3    5    5
 0.002163561297115673    6    3    6    1
 -0.02165099489862551    6    3    6    2
 0.09589469712375086    6    3    6    3
 0.05465187151932377    6    4    1    1
 0.02233916213883792    6    4    2    1
 0.02146073744597028    6    4    2    2
 0.00284523287972775    6    4    3    1
 0.02254844893761214    6    4    3    2
 -0.0698625719501187    6    4    3    3
 0.01322571364580527    6    4    4    1
 -0.0205727183831253    6    4    4    2
 0.04277205847112035    6    4    4    3
 0.04517487639926372    6    4    4    4
 -0.0008934970691664362    6    4    5    1
 0.009298256290090578    6    4    5    2
 0.02523065248168645    6    4    5    3
 0.004146362636453689    6    4    5    4
 0.005446240734255139    6    4    5    5
 0.00282453589738927    6    4    6    1
 0.008530393753996526    6    4    6    2
 -0.01476091716853624    6    4    6    3
 0.06104165549314595    6    4    6    4
 0.06784808082563858    6    5    1    1
 -0.009663409975912326    6    5    2    1
 0.06560355301253923    6    5    2    2
 -0.01136469713137697    6    5    3    1
 0.04893614046788392    6    5    3    2
 -0.09843159144230219    6    5    3    3
 -0.0003813725006017348    6    5    4    1
 -0.003451837986115102    6    5    4    2
 0.03641181824053585    6    5    4    3
 0.01712238090227822    6    5    4    4
 -0.0041557972165515    6    5    5    1
 0.0006479070409168464    6    5    5    2
 0.008962653717901878    6    5    5    3
 -0.0387924206237847    6    5    5    4
 0.05544367711254292    6    5    5    5
 -0.002350456143667884    6    5    6    1
 0.0006313626458167583    6    5    6    2
 0.00369153424985803    6    5    6    3
 0.03986396699216639    6    5    6    4
 0.05641577582012174    6    5    6    5
 0.2501507507809278    6    6    1    1
 -0.02000536016781733    6    6    2    1
 0.2844421164239171    6    6    2    2
 0.01079395462653896    6    6    3    1
 -0.06898518218903715    6    6    3    2
 0.5211133696289344    6    6    3    3
 0.01614414237560833    6    6    4    1
 -0.005120843188089773    6    6    4    2
 -0.04047879271809776    6    6    4    3
 0.3671753646874852    6    6    4    4
 -0.007845710235730472    6    6    5    1
 0.01785374551047192    6    6    5    2
 0.005041780785592233    6    6    5    3
 0.0577874721307637    6    6    5    4
 0.3049512816692533    6    6    5    5
 0.003032920289391232    6    6    6    1
 0.007854159777857771    6    6    6    2
 -0.02103052926533034    6    6    6    3
 -0.04207123157589493    6    6    6    4
 -0.06561827331783733    6    6    6    5
 0.4745771643040189    6    6    6    6
 0.001014477248401159    7    1    1    1
 -0.01081910949179876    7    1    2    1
 0.004655093646351758    7    1    2    2
 -0.003693459620942586    7    1    3    1
 0.002605411306703788    7    1    3    2
 0.0003209784368065216    7    1    3    3
 -0.002353819913322194    7    1    4    1
 0.003217863232784881    7    1    4    2
 0.001842872460993141    7    1    4    3
 0.003101913261284096    7    1    4    4
 -0.005020809062538138    7    1    5    1
 -0.0003060550848920654    7    1    5    2
 0.0001166119462599653    7    1    5    3
 -0.00324032413626472    7    1    5    4
 0.00857643764264922    7    1    5    5
 -0.001416132179910638    7    1    6    1
 0.005882378881766422    7    1    6    2
 0.003561585976738796    7    1    6    3
 0.001875744048316386    7    1    6    4
 0.001481724116506908    7    1    6    5
 -5.566110459018182e-05    7    1    6    6
 0.04031516688574763    7    1    7    1
 -0.02579087936212597    7    2    1    1
 -0.012991968257444    7    2    2    1
 -0.004172003279472519    7    2    2    2
 -0.001315510000440952    7    2    3    1
 -0.0022293125455101    7    2    3    2
 0.003086462610366522    7    2    3    3
 0.004089937492012737    7    2    4    1
 -0.002872099098804938    7    2    4    2
 -0.003970545490513486    7    2    4    3
 -0.00317190768660494    7    2    4    4
 0.0006201293856841001    7    2    5    1
 -0.0006421921056168918    7    2    5    2
 -0.002091376266194044    7    2    5    3
 -0.003084697281048668    7    2    5    4
 0.001163180506235001    7    2    5    5
 0.007085924322049572    7    2    6    1
 -0.007653681015634664    7    2    6    2
 -0.005272985544497031    7    2    6    3
 -0.005824160564744318    7    2    6    4
 -0.0007637692926387289    7    2    6    5
 0.004307668340216022    7    2    6    6
 -0.02205264719127606    7    2    7    1
 0.05574283852260301    7    2    7    2
 -0.005613894715343898    7    3    1    1
 -0.001219156692502987    7    3    2    1
 -0.001202489235687651    7    3    2    2
 0.001228257115135479    7    3    3    1
 -0.004047410856601548    7    3    3    2
 0.009946835799473025    7    3    3    3
 0.003062460371949726    7    3    4    1
 -0.003597717091158765    7    3    4    2
 0.003387533639447799    7    3    4    3
 0.006366450415436677    7    3    4    4
 0.0008049027532389467    7    3    5    1
 -0.0001412927601195863    7    3    5    2
 0.002980304406665519    7    3    5    3
 0.003314021300285234    7    3    5    4
 0.0007551539538477223    7    3    5    5
 0.003251059354882179    7    3    6    1
 -0.00415898441754003    7    3    6    2
 0.004604859191988401    7    3    6    3
 -0.001513751818906006    7    3    6    4
 -0.001382932468296004    7    3    6    5
 0.005712786398599326    7    3    6    6
 -0.006617239164231626    7    3    7    1
 0.01308369810065308    7    3    7    2
 0.01620948420605049    7    3    7    3
 -0.007796854472520763    7    4    1    1
 0.007225633599152259    7    4    2    1
 -0.01346721321841438    7    4    2    2
 0.004197349795873256    7    4    3    1
 -0.01020286944684038    7    4    3    2
 0.01700569337565454    7    4    3    3
 0.004085871871233767    7    4    4    1
 -0.004194127341074377    7    4    4    2
 -0.002830584997938953    7    4    4    3
 0.008311959337058895    7    4    4    4
 0.0001485547503966701    7    4    5    1
 0.002313520088718399    7    4    5    2
 0.001879168100304568    7    4    5    3
 0.01322820913848951    7    4    5    4
 -0.01007448366595174    7    4    5    5
 0.002973786533615654    7    4    6    1
 -0.001156082287868809    7    4    6    2
 -0.003180817560306113    7    4    6    3
 0.001131145290045139    7    4    6    4
 -0.004456511257213584    7    4    6    5
 0.01300987116527183    7    4    6    6
 -0.0004156810532702449    7    4    7    1
 0.004289252914749792    7    4    7    2
 0.00189405543354721    7    4    7    3
 0.01456910522303863    7    4    7    4
 -0.0157673283500158    7    5    1    1
 -0.002559637889248872    7    5    2    1
 -0.009589979917074188    7    5    2    2
 0.0007604536335399444    7    5    3    1
 -0.005160900169249989    7    5    3    2
 0.008490628263390705    7    5    3    3
 -0.0001837613561454505    7    5    4    1
 0.001754499021531924    7    5    4    2
 -0.000916574262876903    7    5    4    3
 0.001380333680175181    7    5    4    4
 0.004045454696313538    7    5    5    1
 -0.004166043661689306    7    5    5    2
 -0.001141134380194396    7    5    5    3
 0.002495745221026687    7    5    5    4
 -0.005551565410053701    7    5    5    5
 0.0004221687689913789    7    5    6    1
 0.001489481510589938    7    5    6    2
 -0.002045869596946597    7    5    6    3
 -0.0007271614828069849    7    5    6    4
 -0.007490242396736678    7    5    6    5
 0.00152421559918521    7    5    6    6
 -0.001248408123857859    7    5    7    1
 -0.001357945967703722    7    5    7    2
 -0.001227025459662318    7    5    7    3
 -0.006205095998507271    7    5    7    4
 0.01950335431409898    7    5    7    5
 -0.008065177584466791    7    6    1    1
 0.02269227662883027    7    6    2    1
 -0.03060215492329139    7    6    2    2
 0.008417715490920703    7    6    3    1
 -0.01654989110356457    7    6    3    2
 0.01821017707335141    7    6    3    3
 0.003388531649790186    7    6    4    1
 -0.004761128594735811    7    6    4    2
 -0.007404281947768065    7    6    4    3
 -0.0001312019418708748    7    6    4    4
 0.001233744814332224    7    6    5    1
 0.004335413182737904    7    6    5    2
 0.001286509688759939    7    6    5    3
 0.02047357590117713    7    6    5    4
 -0.03059192754838233    7    6    5    5
 0.0009652541683280493    7    6    6    1
 0.003121757417248088    7    6    6    2
 -0.000584037772186179    7    6    6    3
 8.510867481722811e-05    7    6    6    4
 -0.01308040969347774    7    6    6    5
 0.01312980965838103    7    6    6    6
 0.001721673344230346    7    6    7    1
 -0.006772736224645031    7    6    7    2
 -0.001920692037521116    7    6    7    3
 0.003303377911372692    7    6    7    4
 0.004799703990707607    7    6    7    5
 0.01462044519466862    7    6    7    6
 0.4024675761146027    7    7    1    1
 -0.06358472778861431    7    7    2    1
 0.4623114339186835    7    7    2    2
 -0.02652435450104462    7    7    3    1
 0.0606935712595674    7    7    3    2
 0.2727315129760807    7    7    3    3
 -0.005318294786751633    7    7    4    1
 -0.0008957592936684536    7    7    4    2
 0.02464390916833405    7    7    4    3
 0.340387516444671    7    7    4    4
 -0.01960859530581295    7    7    5    1
 0.01403825427104658    7    7    5    2
 0.006194072605885987    7    7    5    3
 -0.06951639648510764    7    7    5    4
 0.4277106369519231    7    7    5    5
 -0.007710314252418958    7    7    6    1
 -0.002269391039334532    7    7    6    2
 0.001064015718203    7    7    6    3
 0.01425860952740556    7    7    6    4
 0.04900947801893765    7    7    6    5
 0.2831932407023486    7    7    6    6
 -0.005930613988905856    7    7    7    1
 0.02085349939336757    7    7    7    2
 0.004790917464875658    7    7    7    3
 -0.006340921597640623    7    7    7    4
 -0.01168033590627214    7    7    7    5
 -0.03179743660974332    7    7    7    6
 0.4507014902801944    7    7    7    7
 -0.005564260569587395    8    1    1    1
 -0.01594704253875716    8    1    2    1
 0.001611439871551651    8    1    2    2
 -0.00444559813363639    8    1    3    1
 0.003638304056270857    8    1    3    2
 -0.002939351511259749    8    1    3    3
 0.0007285604515504481    8    1    4    1
 0.005568934471624594    8    1    4    2
 0.004001052043212604    8    1    4    3
 0.00750401164336233    8    1    4    4
 -0.002249384310215618    8    1    5    1
 -0.001333362962987224    8    1    5    2
 0.0004248568369387209    8    1    5    3
 -0.002730370626325143    8    1    5    4
 0.00968705917751338    8    1    5    5
 -0.009814281923209845    8    1    6    1
 0.01039377648847761    8    1    6    2
 0.00363126149276239    8    1    6    3
 0.004515512629915942    8    1    6    4
 0.003880011606459398    8    1    6    5
 -0.002234747314700625    8    1    6    6
 -0.009247836296060583    8    1    7    1
 -0.01060573376219454    8    1    7    2
 -0.003449348183461191    8    1    7    3
 -0.00498738930487579    8    1    7    4
 0.003855229111549499    8    1    7    5
 0.001380345909150821    8    1    7    6
 -0.004257678894177674    8    1    7    7
 0.03429376021059511    8    1    8    1
 -0.03613692767448397    8    2    1    1
 -0.01998745922588433    8    2    2    1
 -0.004047209764778306    8    2    2    2
 -0.0012558750357867    8    2    3    1
 -0.005442935043662627    8    2    3    2
 0.01346201789797306    8    2    3    3
 0.007986790515169078    8    2    4    1
 -0.004882245274978528    8    2    4    2
 -0.002627089887161691    8    2    4    3
 -0.002370639055519284    8    2    4    4
 -2.505172996185072e-05    8    2    5    1
 0.002620124806664638    8    2    5    2
 0.001709301796415027    8    2    5    3
 -0.002363216259945092    8    2    5    4
 0.002958427379326804    8    2    5    5
 0.01196985939737445    8    2    6    1
 -0.01765888900666401    8    2    6    2
 -0.01249032728715853    8    2    6    3
 -0.007497598999560475    8    2    6    4
 -0.00297734731618191    8    2    6    5
 0.01266022592206859    8    2    6    6
 -0.0109985744594645    8    2    7    1
 0.01233466320815248    8    2    7    2
 0.0042052970102003    8    2    7    3
 0.005077075957709233    8    2    7    4
 -0.004980085551570563    8    2    7    5
 -0.00781325578804299    8    2    7    6
 0.01639317454946096    8    2    7    7
 -0.02994024579001702    8    2    8    1
 0.06603631306460188    8    2    8    2
 -0.008553344086299607    8    3    1    1
 -0.0009643404192377274    8    3    2    1
 -0.00458674115246592    8    3    2    2
 0.000482122631970935    8    3    3    1
 -0.0001584295192638766    8    3    3    2
 -0.004520402712979204    8    3    3    3
 0.002868592161272919    8    3    4    1
 -0.0001657851153559836    8    3    4    2
 -0.01087708454922401    8    3    4    3
 0.004935334813025821    8    3    4    4
 -0.0001099276486526465    8    3    5    1
 0.004647375996718985    8    3    5    2
 -0.01074592745351478    8    3    5    3
 0.004589630559239281    8    3    5    4
 -0.001758811423717763    8    3    5    5
 0.005753203543346852    8    3    6    1
 -0.01326738533857037    8    3    6    2
 0.02558070722498816    8    3    6    3
 -0.006933841933782846    8    3    6    4
 -0.001321957773141519    8    3    6    5
 6.495454038460673e-05    8    3    6    6
 -0.003034072893419553    8    3    7    1
 0.003663199599479027    8    3    7    2
 0.002365419757492247    8    3    7    3
 0.0007216917944656815    8    3    7    4
 -0.002500102920122953    8    3    7    5
 -0.001720219951945094    8    3    7    6
 0.001671933313066123    8    3    7    7
 -0.01006019893364054    8    3    8    1
 0.01784936906952406    8    3    8    2
 0.01502061793097302    8    3    8    3
 0.02065707645144799    8    4    1    1
 0.02135106303380161    8    4    2    1
 -0.004197335842886674    8    4    2    2
 0.006154295809422788    8    4    3    1
 0.0008793577927226062    8    4    3    2
 -0.01996658694804592    8    4    3    3
 0.01082963267159634    8    4    4    1
 -0.01537979019719707    8    4    4    2
 0.01730818674744222    8    4    4    3
 0.02925227583170687    8    4    4    4
 -0.0005211837106891247    8    4    5    1
 0.007547804049919823    8    4    5    2
 0.01371528780542907    8    4    5    3
 0.01607699533722133    8    4    5    4
 -0.008687449934419099    8    4    5    5
 0.004397130631211389    8    4    6    1
 0.0009206886098086019    8    4    6    2
 -0.007302573662546526    8    4    6    3
 0.0252559260295494    8    4    6    4
 0.01560609739161003    8    4    6    5
 -0.006886299241100007    8    4    6    6
 -0.005085360192438728    8    4    7    1
 0.002618239039122522    8    4    7    2
 0.0008525166727148471    8    4    7    3
 0.0002845056179361457    8    4    7    4
 -0.003969107084858123    8    4    7    5
 0.0009824660886146716    8    4    7    6
 -0.001901878485567069    8    4    7    7
 -0.002125161800649852    8    4    8    1
 0.00471099590663834    8    4    8    2
 0.001908038726791264    8    4    8    3
 0.02515465558911567    8    4    8    4
 0.006045244137181054    8    5    1    1
 -0.001768928205794468    8    5    2    1
 0.008071560269151217    8    5    2    2
 -0.002111476580109324    8    5    3    1
 0.01149601067218567    8    5    3    2
 -0.03124776635199121    8    5    3    3
 -0.0006168410756487393    8    5    4    1
 0.0004099198345449576    8    5    4    2
 0.01323081278245362    8    5    4    3
 0.005550051001237585    8    5    4    4
 0.004670876978972904    8    5    5    1
 -0.005160301199695647    8    5    5    2
 0.001944639794814152    8    5    5    3
 -0.009675979401399824    8    5    5    4
 0.007597372703691567    8    5    5    5
 0.0008706215818199657    8    5    6    1
 0.001625985001799233    8    5    6    2
 0.000248369999465918    8    5    6    3
 0.01627404383875112    8    5    6    4
 0.007108140754553594    8    5    6    5
 -0.02576484289244942    8    5    6    6
 0.004253941116883855    8    5    7    1
 -0.006466052585765859    8    5    7    2
 -0.002422799220693081    8    5    7    3
 -0.004582259929063143    8    5    7    4
 0.005366243078804391    8    5    7    5
 -0.00062522139990963    8    5    7    6
 0.002114999189572205    8    5    7    7
 0.002665992440103642    8    5    8    1
 -0.007183562803706082    8    5    8    2
 -0.003371151417080188    8    5    8    3
 -0.005779347303822606    8    5    8    4
 0.0270432079328821    8    5    8    5
 -0.04604492858850114    8    6    1    1
 0.03362269658625934    8    6    2    1
 -0.07457132185931137    8    6    2    2
 0.01824871667187149    8    6    3    1
 -0.04977719431368328    8    6    3    2
 0.08310225455839892    8    6    3    3
 0.01032089690839895    8    6    4    1
 -0.00681597494163888    8    6    4    2
 -0.02121772970054486    8    6    4    3
 0.01493439278954306    8    6    4    4
 0.0052363654266263    8    6    5    1
 0.004782952339984775    8    6    5    2
 0.002639474838040743    8    6    5    3
 0.05563863582968147    8    6    5    4
 -0.05867402274424355    8    6    5    5
 0.004191651937113768    8    6    6    1
 0.006526990029422141    8    6    6    2
 -0.006915940684336923    8    6    6    3
 -0.01215895248383744    8    6    6    4
 -0.04228742708888863    8    6    6    5
 0.06071770373851092    8    6    6    6
 0.0007995288968359921    8    6    7    1
 -0.007331495269430964    8    6    7    2
 -0.0001744219433024399    8    6    7    3
 0.006781453282865195    8    6    7    4
 0.005521846790659231    8    6    7    5
 0.01944002874471284    8    6    7    6
 -0.06238903897942225    8    6    7    7
 0.003950746714466179    8    6    8    1
 -0.01177273413418772    8    6    8    2
 -0.002581655718596233    8    6    8    3
 0.002019243592327684    8    6    8    4
 -0.002804385963448007    8    6    8    5
 0.05641460447103023    8    6    8    6
 -0.0347391538751888    8    7    1    1
 -0.05232215596379636    8    7    2    1
 0.02702841746811707    8    7    2    2
 -0.01303713329857482    8    7    3    1
 0.009450254106774712    8    7    3    2
 0.01166548571693914    8    7    3    3
 -0.005095498020484068    8    7    4    1
 0.0143008544903052    8    7    4    2
 -0.002101081399838458    8    7    4    3
 -0.002009059413370536    8    7    4    4
 0.003774450625371901    8    7    5    1
 -0.0148890450591476    8    7    5    2
 -0.009972469019914739    8    7    5    3
 -0.02691419804297361    8    7    5    4
 0.04145263979097388    8    7    5    5
 0.00279787175930612    8    7    6    1
 -0.009920692483204277    8    7    6    2
 -0.00200594588052405    8    7    6    3
 -0.01362212137441762    8    7    6    4
 0.002863826850435511    8    7    6    5
 0.01116624600744615    8    7    6    6
 -0.005945122410685714    8    7    7    1
 0.02000625690169409    8    7    7    2
 0.004148778144714602    8    7    7    3
 -0.001969337424530543    8    7    7    4
 -0.0003919384052450786    8    7    7    5
 -0.01685636704820198    8    7    7    6
 0.039577500875964    8    7    7    7
 -0.006709067124990961    8    7    8    1
 0.0236204390575528    8    7    8    2
 0.005279657080154973    8    7    8    3
 -0.01135765607220702    8    7    8    4
 -0.0012627308399459    8    7    8    5
 -0.02245187611742781    8    7    8    6
 0.04841881208655855    8    7    8    7
 0.3872640594981508    8    8    1    1
 -0.1016491450575904    8    8    2    1
 0.4908191742361696    8    8    2    2
 -0.0368159157506676    8    8    3    1
 0.07321319755913813    8    8    3    2
 0.2698482010709758    8    8    3    3
 -0.007736553971317381    8    8    4    1
 0.007786879848246442    8    8    4    2
 0.0290171153255263    8    8    4    3
 0.3477490818129341    8    8    4    4
 -0.01710357374743698    8    8    5    1
 0.004332981897684617    8    8    5    2
 0.0008224778711288013    8    8    5    3
 -0.09062424246071012    8    8    5    4
 0.4651649953044916    8    8    5    5
 -0.004380733477598833    8    8    6    1
 -0.01140386887654366    8    8    6    2
 0.00261433421303477    8    8    6    3
 0.00893031523642477    8    8    6    4
 0.05598855894875036    8    8    6    5
 0.2902551058500626    8    8    6    6
 -0.003391538430931459    8    8    7    1
 0.02013933971243706    8    8    7    2
 0.005075751776894151    8    8    7    3
 -0.01283018362988829    8    8    7    4
 -0.008929069845197818    8    8    7    5
 -0.03996551050864773    8    8    7    6
 0.4506224382323038    8    8    7    7
 -0.01297830855220936    8    8    8    1
 0.04244695065790366    8    8    8    2
 0.00950785882848317    8    8    8    3
 -0.005135894398573739    8    8    8    4
 0.001923986271100115    8    8    8    5
 -0.08972348320760123    8    8    8    6
 0.06093159826315408    8    8    8    7
 0.5374510901411553    8    8    8    8
 0.01015896636778307    9    1    1    1
 0.005780320029404087    9    1    2    1
 0.004507368834013249    9    1    2    2
 0.0001749866845239619    9    1    3    1
 0.0005506351974442639    9    1    3    2
 0.0003817916840283179    9    1    3    3
 -0.003794416339580121    9    1    4    1
 -0.001792622270755458    9    1    4    2
 -0.001884067923224121    9    1    4    3
 -0.007055842617579546    9    1    4    4
 -0.002227432995596127    9    1    5    1
 0.0006116836705698694    9    1    5    2
 -7.566048706656218e-05    9    1    5    3
 -0.0022717507905468    9    1    5    4
 -0.000849652279576973    9    1    5    5
 -0.002997288628618962    9    1    6    1
 -0.0006017984517773045    9    1    6    2
 -0.0004809617318912084    9    1    6    3
 -0.003895859855925107    9    1    6    4
 -0.0008591113235452332    9    1    6    5
 -0.001601574461728796    9    1    6    6
 -0.009541923690402928    9    1    7    1
 0.0108973027415359    9    1    7    2
 0.004310164778824763    9    1    7    3
 -0.000356655308128928    9    1    7    4
 -1.630544708931117e-05    9    1    7    5
 -0.001154686851897885    9    1    7    6
 0.005345621982151127    9    1    7    7
 0.002006527464127624    9    1    8    1
 -0.003837258604092781    9    1    8    2
 -0.001492933814231664    9    1    8    3
 -0.001297453886706507    9    1    8    4
 -0.00212341312855109    9    1    8    5
 -0.002151423145358502    9    1    8    6
 0.001598068305558897    9    1    8    7
 0.002227419222039223    9    1    8    8
 0.005964008961741025    9    1    9    1
 0.00974880023819961    9    2    1    1
 0.006534355159553784    9    2    2    1
 0.0004183540633937482    9    2    2    2
 -0.0001656020273880913    9    2    3    1
 0.004166639827009896    9    2    3    2
 -0.01384742974332149    9    2    3    3
 -0.003796282595551129    9    2    4    1
 0.002004778489994304    9    2    4    2
 -0.001928217222910219    9    2    4    3
 -0.002621850705266358    9    2    4    4