 &FCI NORB=  15,NELEC=22,MS2=0,
  ORBSYM=1,1,1,1,1,1,1,1,1,1,1,1,1,1,1,
  ISYM=1,
 &END
 0.5733290583138175    1    1    1    1
 0.009792466768072682    2    1    1    1
 0.2421495602523413    2    1    2    1
 0.5704479212681526    2    2    1    1
 -0.01266334123461685    2    2    2    1
 0.5789197146302034    2    2    2    2
 0.001766601692032089    3    1    1    1
 0.0001259050796689091    3    1    2    1
 0.001937762082985839    3    1    2    2
 8.928286054664484e-05    3    1    3    1
 9.555274588011698e-05    3    2    1    1
 0.002510270927659549    3    2    2    1
 -0.0001211383610300646    3    2    2    2
 7.090595657945675e-06    3    2    3    1
 5.109960229880735e-05    3    2    3    2
 0.1029400080645763    3    3    1    1
 0.007621661522959785    3    3    2    1
 0.1023567569018299    3    3    2    2
 -7.845075529557943e-05    3    3    3    1
 0.000116630128874637    3    3    3    2
 0.6544638663702618    3    3    3    3
 0.01052773462703498    4    1    1    1
 0.001026588877540436    4    1    2    1
 0.01212173021305749    4    1    2    2
 0.0006539943537135968    4    1    3    1
 5.932478342778248e-05    4    1    3    2
 -0.001715860112142301    4    1    3    3
 0.004884878940734803    4    1    4    1
 0.0009070022968078678    4    2    1    1
 0.0180646523481365    4    2    2    1
 -0.0005948809635467386    4    2    2    2
 6.016154919045583e-05    4    2    3    1
 0.0003936076457023763    4    2    3    2
 0.0003697064361842579    4    2    3    3
 0.0005000985824980735    4    2    4    1
 0.003115711313980305    4    2    4    2
 0.01216480518608347    4    3    1    1
 -0.000691953118502692    4    3    2    1
 0.01190646448397522    4    3    2    2
 -0.0002233225711153493    4    3    3    1
 -3.348442036312074e-05    4    3    3    2
 -0.07909471268456195    4    3    3    3
 -0.001450932992033018    4    3    4    1
 -0.0001618097000387199    4    3    4    2
 0.0169700529698723    4    3    4    3
 0.188176581768823    4    4    1    1
 0.003606414400579948    4    4    2    1
 0.1858701818678408    4    4    2    2
 -0.001568545957596442    4    4    3    1
 -9.715072885532056e-05    4    4    3    2
 0.1443013858664182    4    4    3    3
 -0.01143673322411864    4    4    4    1
 -0.000656519225006591    4    4    4    2
 0.03090608580009491    4    4    4    3
 0.3482944353410902    4    4    4    4
 -0.06035180253603718    5    1    1    1
 -0.00331027966815372    5    1    2    1
 -0.0448044781050984    5    1    2    2
 0.0005144355064048497    5    1    3    1
 0.0001367668311123898    5    1    3    2
 -0.0008184092846583823    5    1    3    3
 0.005666581264557654    5    1    4    1
 0.001271616208716043    5    1    4    2
 -0.001561039455026129    5    1    4    3
 -0.01120962899576113    5    1    4    4
 0.05622999414858609    5    1    5    1
 -0.006532312040635431    5    2    1    1
 0.02262858772305055    5    2    2    1
 -0.007450334313341762    5    2    2    2
 0.0001574819982547874    5    2    3    1
 0.0008167851860672289    5    2    3    2
 0.003825035499950173    5    2    3    3
 0.001465837911530063    5    2    4    1
 0.007777895317269288    5    2    4    2
 -0.0005082199533829081    5    2    4    3
 0.0006675576228466101    5    2    4    4
 0.01036096522976497    5    2    5    1
 0.05339193669495417    5    2    5    2
 0.00418109735565747    5    3    1    1
 0.0005501635972149318    5    3    2    1
 0.004357194422414846    5    3    2    2
 8.631608123111769e-06    5    3    3    1
 1.340431482227355e-05    5    3    3    2
 0.003314713147190508    5    3    3    3
 7.741530964774741e-05    5    3    4    1
 0.00010648284095702    5    3    4    2
 -0.001078577561076433    5    3    4    3
 -0.003478299631507037    5    3    4    4
 0.0004450026812978275    5    3    5    1
 0.0003302911876858045    5    3    5    2
 0.0002659855963239468    5    3    5    3
 0.04214081001174272    5    4    1    1
 0.004728715991675119    5    4    2    1
 0.04380698662751897    5    4    2    2
 0.0001477421113918323    5    4    3    1
 0.0001125094511848952    5    4    3    2
 -0.004815279485664737    5    4    3    3
 0.00127699379457999    5    4    4    1
 0.0009300625589646683    5    4    4    2
 -0.002776410927501393    5    4    4    3
 -0.0215190422045846    5    4    4    4
 0.004129258697289414    5    4    5    1
 0.002719153705956375    5    4    5    2
 0.001790286169251152    5    4    5    3
 0.01411941130527486    5    4    5    4
 0.4420235629102132    5    5    1    1
 0.03532272525024861    5    5    2    1
 0.4514453303943544    5    5    2    2
 0.001967710084439284    5    5    3    1
 0.0006318140841078236    5    5    3    2
 0.1038223583202934    5    5    3    3
 0.01502802787371058    5    5    4    1
 0.005292859582848308    5    5    4    2
 0.01030602189123185    5    5    4    3
 0.1763340734357852    5    5    4    4
 0.02035504427425458    5    5    5    1
 0.01552274184477188    5    5    5    2
 0.004745787110128703    5    5    5    3
 0.04788289611943501    5    5    5    4
 0.4797873419787288    5    5    5    5
 -0.001474347274065662    6    1    1    1
 0.03745395249395703    6    1    2    1
 -0.004443112034619806    6    1    2    2
 -3.079968335298074e-05    6    1    3    1
 -0.0002187483372520036    6    1    3    2
 -0.001660512775002491    6    1    3    3
 -0.0001884379156555099    6    1    4    1
 -0.003401274829382969    6    1    4    2
 -1.749135683961364e-05    6    1    4    3
 -0.00184499219865439    6    1    4    4
 -0.002226621052738259    6    1    5    1
 -0.04122351881697302    6    1    5    2
 -0.0001246995373385135    6    1    5    3
 -0.0008865667498624281    6    1    5    4
 -0.00265609386044141    6    1    5    5
 0.04780330000702481    6    1    6    1
 0.083382320960619    6    2    1    1
 -0.0003858534823404627    6    2    2    1
 0.07363434169867669    6    2    2    2
 -0.0005296409475436465    6    2    3    1
 -6.289993452157942e-05    6    2    3    2
 0.002249447459520635    6    2    3    3
 -0.006174178904932433    6    2    4    1
 -0.0002687220719922402    6    2    4    2
 0.001938442367553066    6    2    4    3
 0.01523866756320096    6    2    4    4
 -0.05987994469425568    6    2    5    1
 -0.0006615616296890463    6    2    5    2
 -0.0003460394923847001    6    2    5    3
 -0.003368691350794059    6    2    5    4
 -0.01495175474990064    6    2    5    5
 -0.009100015645747923    6    2    6    1
 0.07604848377987806    6    2    6    2
 -0.0001931623165089227    6    3    1    1
 -0.001913630904727815    6    3    2    1
 -5.361733839323497e-05    6    3    2    2
 -1.260595646152274e-05    6    3    3    1
 -2.193047356220879e-05    6    3    3    2
 0.0002753657223017101    6    3    3    3
 -9.681474605464341e-05    6    3    4    1
 -0.0002015718574085021    6    3    4    2
 -2.813342143390186e-05    6    3    4    3
 0.0001004242185439925    6    3    4    4
 -0.0001609807980112234    6    3    5    1
 -0.001200034574011253    6    3    5    2
 -5.220256089175237e-06    6    3    5    3
 -8.323911817669766e-05    6    3    5    4
 -0.0007908585758059619    6    3    5    5
 0.0005830171193029228    6    3    6    1
 -2.381682010290632e-05    6    3    6    2
 4.855912323128555e-05    6    3    6    3
 -0.001050699408064262    6    4    1    1
 -0.02142920380334342    6    4    2    1
 0.0006702284223535297    6    4    2    2
 -9.683297876623365e-05    6    4    3    1
 -0.0002700570612809527    6    4    3    2
 -0.001336880196146105    6    4    3    3
 -0.0007403970316623884    6    4    4    1
 -0.002354839204574169    6    4    4    2
 0.0002945501709571744    6    4    4    3
 0.0005995376751102475    6    4    4    4
 -0.001259208513616851    6    4    5    1
 -0.01183441267768027    6    4    5    2
 -8.495925854981297e-05    6    4    5    3
 -0.0008035605053114921    6    4    5    4
 -0.006797253988239753    6    4    5    5
 0.005288190420254015    6    4    6    1
 -0.000528416796101759    6    4    6    2
 0.0004671215931142099    6    4    6    3
 0.004667525717672391    6    4    6    4
 -0.01139866963880142    6    5    1    1
 -0.1826070571347433    6    5    2    1
 0.005237124848049238    6    5    2    2
 -0.0002564892816322484    6    5    3    1
 -0.002562255366731124    6    5    3    2
 -0.0103808953966389    6    5    3    3
 -0.002019744615934649    6    5    4    1
 -0.02097832748555053    6    5    4    2
 0.0009734240362011004    6    5    4    3
 -0.004616628328718383    6    5    4    4
 -0.00230362102074779    6    5    5    1
 -0.07999754193857461    6    5    5    2
 -0.0008358013091251302    6    5    5    3
 -0.006978076354071833    6    5    5    4
 -0.04601541528885236    6    5    5    5
 0.02753556574315725    6    5    6    1
 -0.009528445769535609    6    5    6    2
 0.003030432900374077    6    5    6    3
 0.03186526907643642    6    5    6    4
 0.2450882676342037    6    5    6    5
 0.4673670074132437    6    6    1    1
 -0.03676372390562095    6    6    2    1
 0.485757951628785    6    6    2    2
 0.002002399484194425    6    6    3    1
 -0.0003650384678707576    6    6    3    2
 0.0982203114446345    6    6    3    3
 0.01496328699735363    6    6    4    1
 -0.002851020711690969    6    6    4    2
 0.01002386593957824    6    6    4    3
 0.1690777595587787    6    6    4    4
 0.01228271789545959    6    6    5    1
 -0.01668266926239063    6    6    5    2
 0.004870422326756559    6    6    5    3
 0.04896973570309182    6    6    5    4
 0.4759379190069216    6    6    5    5
 0.007286168406187286    6    6    6    1
 -0.005760440516923092    6    6    6    2
 0.0003736564997506625    6    6    6    3
 0.005560626954856795    6    6    6    4
 0.04892384924388786    6    6    6    5
 0.5183342299839794    6    6    6    6
 -0.02056469411498594    7    1    1    1
 4.960205825623503e-05    7    1    2    1
 -0.012277390025167    7    1    2    2
 -0.001428168220991305    7    1    3    1
 -0.0001056808633516805    7    1    3    2
 0.0041289699651113    7    1    3    3
 -0.0104338548592269    7    1    4    1
 -0.0007813308393780556    7    1    4    2
 0.00220169429965358    7    1    4    3
 0.01898488371527132    7    1    4    4
 0.007356470950024231    7    1    5    1
 1.046598973417442e-05    7    1    5    2
 0.0003600573699841054    7    1    5    3
 0.001632928546296176    7    1    5    4
 -0.008290478096211439    7    1    5    5
 0.000125916796016337    7    1    6    1
 0.002243719154105288    7    1    6    2
 0.0001334018644851821    7    1    6    3
 0.0009342788030969398    7    1    6    4
 0.001153860574001425    7    1    6    5
 -0.01021473216002113    7    1    6    6
 0.04839039042572753    7    1    7    1
 0.001088248754373355    7    2    1    1
 0.003986930750926759    7    2    2    1
 0.0007876496982385082    7    2    2    2
 -9.088391911069272e-05    7    2    3    1
 -0.0005041151030068072    7    2    3    2
 0.001640825547637966    7    2    3    3
 -0.0006723016169868157    7    2    4    1
 -0.0040222366697921    7    2    4    2
 -0.0001157074062476559    7    2    4    3
 0.0009732563933621188    7    2    4    4
 -0.0002918695478096652    7    2    5    1
 0.00597003065269878    7    2    5    2
 8.412966467033234e-06    7    2    5    3
 -1.435257559223842e-05    7    2    5    4
 0.00118929871022651    7    2    5    5
 0.002818990624832361    7    2    6    1
 0.0006040809139812826    7    2    6    2
 -0.0002614670754271451    7    2    6    3
 -0.001781498072039043    7    2    6    4
 -0.005763430015519713    7    2    6    5
 -0.001475403003963949    7    2    6    6
 0.003238451545717497    7    2    7    1
 0.03439253837793264    7    2    7    2
 -0.0109314270980668    7    3    1    1
 -0.0001147384040143999    7    3    2    1
 -0.01045245189745357    7    3    2    2
 8.522617672434879e-05    7    3    3    1
 -6.145445691176202e-06    7    3    3    2
 -0.002968216876023827    7    3    3    3
 0.0006498746043528254    7    3    4    1
 -3.648014417111816e-05    7    3    4    2
 0.0009943804165623974    7    3    4    3
 0.00272993620896869    7    3    4    4
 0.001835869423685536    7    3    5    1
 0.0001859634761199708    7    3    5    2
 -0.0005313572917125388    7    3    5    3
 -0.003620313106576418    7    3    5    4
 -0.007307553465927633    7    3    5    5
 0.0001291781116260404    7    3    6    1
 -0.002064745669689832    7    3    6    2
 -3.382442069134199e-05    7    3    6    3
 -0.0002222525254575882    7    3    6    4
 0.0001386008723496757    7    3    6    5
 -0.008362895137267871    7    3    6    6
 -0.0007586604957637859    7    3    7    1
 5.287394034493554e-05    7    3    7    2
 0.001723817338906605    7    3    7    3
 -0.07928532725085816    7    4    1    1
 -0.0009143582080425489    7    4    2    1
 -0.07607547138522061    7    4    2    2
 0.0005918341927664568    7    4    3    1
 -3.682452965334936e-05    7    4    3    2
 0.00590212617223421    7    4    3    3
 0.004443367848908453    7    4    4    1
 -0.0002500439392618655    7    4    4    2
 0.001888663760575379    7    4    4    3
 0.01335008808308059    7    4    4    4
 0.01267050697615638    7    4    5    1
 0.001290637347983363    7    4    5    2
 -0.003337788203240934    7    4    5    3
 -0.02432821909391526    7    4    5    4
 -0.05393294309833858    7    4    5    5
 0.0008805622310728416    7    4    6    1
 -0.01438528050673842    7    4    6    2
 -0.0002020206739549831    7    4    6    3
 -0.001474105308820769    7    4    6    4
 0.001060606316623643    7    4    6    5
 -0.06130442301346781    7    4    6    6
 -0.005016519246135644    7    4    7    1
 0.0004092122545550081    7    4    7    2
 0.01132920264238558    7    4    7    3
 0.07607225082241267    7    4    7    4
 0.03242421093309537    7    5    1    1
 -0.001012903241061451    7    5    2    1
 0.03336943910997991    7    5    2    2
 0.0005585203028875049    7    5    3    1
 -9.950339155258915e-06    7    5    3    2
 -0.002285190055851154    7    5    3    3
 0.003750141621993783    7    5    4    1
 -7.523598628724306e-05    7    5    4    2
 -0.002321997798978214    7    5    4    3
 -0.01670265469772654    7    5    4    4
 0.0008933224091134658    7    5    5    1
 -0.0004890222034289563    7    5    5    2
 0.0007281619383379101    7    5    5    3
 0.005780569611657181    7    5    5    4
 0.03230228578222046    7    5    5    5
 0.0007129838049720828    7    5    6    1
 -0.0001325452150163813    7    5    6    2
 3.493280249885099e-05    7    5    6    3
 0.0003909884275745603    7    5    6    4
 0.002059604935028679    7    5    6    5
 0.02934068905132445    7    5    6    6
 -0.001054649369131166    7    5    7    1
 0.001233545542459669    7    5    7    2
 -0.001686686430223795    7    5    7    3
 -0.01050390379686606    7    5    7    4
 0.02254805284532422    7    5    7    5
 0.001778705166767246    7    6    1    1
 0.005913501635445148    7    6    2    1
 0.00161317685267847    7    6    2    2
 9.840783171387265e-05    7    6    3    1
 -5.693390717437623e-05    7    6    3    2
 -0.0006241569481641382    7    6    3    3
 0.0007245068704087764    7    6    4    1
 -0.0002664106996442716    7    6    4    2
 -0.0002371891150406628    7    6    4    3
 -0.002149644616642328    7    6    4    4
 0.0009772118620950028    7    6    5    1
 -0.001387272419070295    7    6    5    2
 9.20491272262672e-05    7    6    5    3
 0.0008102063874929669    7    6    5    4
 0.003710929905897927    7    6    5    5
 0.001182581153037258    7    6    6    1
 -0.001427912246184218    7    6    6    2
 -0.0001853666660692861    7    6    6    3
 -0.00168981484027152    7    6    6    4
 -0.001975505427086576    7    6    6    5
 0.002617120492609045    7    6    6    6
 -0.0009978600189738205    7    6    7    1
 -0.003678763188714947    7    6    7    2
 -1.627340403851805e-05    7    6    7    3
 -0.0001369362889061187    7    6    7    4
 -0.000331484345770653    7    6    7    5
 0.01223580742313246    7    6    7    6
 0.3873615370905579    7    7    1    1
 0.01192373831746074    7    7    2    1
 0.3846363486960558    7    7    2    2
 0.0002146663142025135    7    7    3    1
 0.0001348081121291264    7    7    3    2
 0.1135476816971843    7    7    3    3
 0.0009125867177634493    7    7    4    1
 0.001202916525265128    7    7    4    2
 0.01930815314792497    7    7    4    3
 0.2430166611709303    7    7    4    4
 -0.02454971627000296    7    7    5    1
 0.0004445842480299503    7    7    5    2
 0.001223458246272955    7    7    5    3
 0.01771823485580024    7    7    5    4
 0.3332893540055533    7    7    5    5
 -0.001835718450406562    7    7    6    1
 0.03396456889186451    7    7    6    2
 -0.000152164942156903    7    7    6    3
 -0.001127563424160788    7    7    6    4
 -0.01274604889164583    7    7    6    5
 0.3369760536637491    7    7    6    6
 -0.0005702024205135568    7    7    7    1
 0.0003622158191278133    7    7    7    2
 -0.004376562738826174    7    7    7    3
 -0.03528322296113789    7    7    7    4
 0.01045383755697371    7    7    7    5
 0.0006810993154826341    7    7    7    6
 0.3294000028263428    7    7    7    7
 -9.933734914932009e-05    8    1    1    1
 -1.232580304151413e-05    8    1    2    1
 -0.0001001617702198469    8    1    2    2
 7.16741846409993e-05    8    1    3    1
 -1.318472298776948e-06    8    1    3    2
 -0.004105397870999596    8    1    3    3
 -0.0001636706449807961    8    1    4    1
 -3.390789929483634e-05    8    1    4    2
 0.0006113908764278837    8    1    4    3
 -9.137729514649802e-05    8    1    4    4
 2.210508091501886e-05    8    1    5    1
 -7.524213304111043e-06    8    1    5    2
 -5.468153629933922e-05    8    1    5    3
 -0.0001088013396840511    8    1    5    4
 -2.164353750572703e-05    8    1    5    5
 -5.355366433441674e-05    8    1    6    1
 -6.002614670022051e-05    8    1    6    2
 1.038663567063459e-06    8    1    6    3
 -6.450690348996807e-06    8    1    6    4
 7.6244633605738e-05    8    1    6    5
 -4.956126564855775e-05    8    1    6    6
 9.636289982071222e-06    8    1    7    1
 7.412091378194181e-05    8    1    7    2
 7.214390951691971e-05    8    1    7    3
 0.0002863963400076402    8    1    7    4
 -7.572475131290853e-05    8    1    7    5
 -2.578729385343713e-06    8    1    7    6
 8.516365105709086e-05    8    1    7    7
 0.0682993377280221    8    1    8    1
 4.218965966638587e-05    8    2    1    1
 -8.151998903702952e-05    8    2    2    1
 5.129895513485333e-05    8    2    2    2
 1.915702079097473e-07    8    2    3    1
 4.659425828667182e-05    8    2    3    2
 -0.0009470481713642741    8    2    3    3
 -3.21464327951111e-05    8    2    4    1
 -0.0001548591359099315    8    2    4    2
 0.0001580361469102877    8    2    4    3
 3.898615630647878e-05    8    2    4    4
 -2.828748840332436e-05    8    2    5    1
 4.113046829994138e-05    8    2    5    2
 -1.080204136678123e-05    8    2    5    3
 -1.875248266515075e-05    8    2    5    4
 -3.867503224263684e-05    8    2    5    5
 -6.311071595241516e-05    8    2    6    1
 8.501361737204744e-06    8    2    6    2
 2.446987548107851e-06    8    2    6    3
 3.582181819689138e-05    8    2    6    4
 9.050057775670571e-06    8    2    6    5
 -2.919705496095298e-05    8    2    6    6
 7.066706612283889e-05    8    2    7    1
 -1.204078839135473e-05    8    2    7    2
 2.444580738418772e-06    8    2    7    3
 -2.487101718575591e-06    8    2    7    4
 1.050149675005742e-06    8    2    7    5
 1.116012953038609e-05    8    2    7    6
 5.621935891674157e-05    8    2    7    7
 0.003605032065642526    8    2    8    1
 0.05083921823907774    8    2    8    2
 0.0004053982272339739    8    3    1    1
 -2.182696231382925e-05    8    3    2    1
 0.0003990301135335933    8    3    2    2
 -4.752352755948146e-07    8    3    3    1
 -4.758018787543798e-08    8    3    3    2
 -0.0004925315373953373    8    3    3    3
 -4.871135449677995e-06    8    3    4    1
 -1.150128614163103e-06    8    3    4    2
 9.622926756876293e-05    8    3    4    3
 0.0001275588900282503    8    3    4    4
 -5.391456684981848e-05    8    3    5    1
 -1.783027590099556e-05    8    3    5    2
 1.196013379768502e-06    8    3    5    3
 4.043353410571552e-05    8    3    5    4
 0.0002990758328671529    8    3    5    5
 1.778788779731675e-06    8    3    6    1
 6.453060767213334e-05    8    3    6    2
 3.383132276297347e-07    8    3    6    3
 6.583337724897022e-06    8    3    6    4
 2.883470081789318e-05    8    3    6    5
 0.000329205942122246    8    3    6    6
 1.845607729713623e-06    8    3    7    1
 -4.785869112468184e-06    8    3    7    2
 -1.204682244757723e-05    8    3    7    3
 -0.0001057266887806535    8    3    7    4
 2.030034947118209e-05    8    3    7    5
 5.637491295799152e-07    8    3    7    6
 0.0002692711773125415    8    3    7    7
 0.0002586867150192179    8    3    8    1
 9.740391040228839e-05    8    3    8    2
 3.061196622559689e-05    8    3    8    3
 -0.0007052720052205104    8    4    1    1
 -0.0001082911346397597    8    4    2    1
 -0.0007223570715317259    8    4    2    2
 -1.336977639798753e-05    8    4    3    1
 -5.681764369946416e-07    8    4    3    2
 0.0006478023984945545    8    4    3    3
 -0.0001045581966102078    8    4    4    1
 -1.397211356863965e-05    8    4    4    2
 -1.796481914847369e-05    8    4    4    3
 0.0004849578811284235    8    4    4    4
 -1.373282389088739e-05    8    4    5    1
 -2.844163830794387e-05    8    4    5    2
 -2.713500828789857e-06    8    4    5    3
 -0.0001185433295983014    8    4    5    4
 -0.0006260791464675422    8    4    5    5
 -3.751523809046786e-06    8    4    6    1
 -1.334899034528607e-05    8    4    6    2
 3.725710850987033e-06    8    4    6    3
 2.792910740675951e-05    8    4    6    4
 0.0001107085422476318    8    4    6    5
 -0.000624710607134854    8    4    6    6
 0.0001080922715965362    8    4    7    1
 -7.623729201466067e-06    8    4    7    2
 -1.614149737973463e-05    8    4    7    3
 -5.117822923246556e-05    8    4    7    4
 -9.581305209364743e-05    8    4    7    5
 -1.835535636770646e-05    8    4    7    6
 -0.0002273280177692168    8    4    7    7
 0.0019599031907135    8    4    8    1
 0.0006903123229093562    8    4    8    2
 0.000226940090104667    8    4    8    3
 0.001783453402472579    8    4    8    4
 0.0001488345161684427    8    5    1    1
 -0.0001144894377240636    8    5    2    1
 0.0001854655269764653    8    5    2    2
 -4.801889399686073e-06    8    5    3    1
 -7.584181653755998e-07    8    5    3    2
 -0.0006911508176122439    8    5    3    3
 -1.184669184202168e-05    8    5    4    1
 -2.105116111719012e-05    8    5    4    2
 0.0001095310965167142    8    5    4    3
 -3.632900040421035e-05    8    5    4    4
 3.552454366427448e-05    8    5    5    1
 -7.109749629849532e-05    8    5    5    2
 2.168468697732898e-05    8    5    5    3
 -4.590604539824323e-05    8    5    5    4
 0.000155747768168963    8    5    5    5
 4.485915931491921e-05    8    5    6    1
 -4.264926790215026e-05    8    5    6    2
 3.61294905785865e-06    8    5    6    3
 2.972240767332221e-05    8    5    6    4
 0.0001800720390642568    8    5    6    5
 0.0002518630478052279    8    5    6    6
 -4.449025092420516e-05    8    5    7    1
 7.953875181274707e-07    8    5    7    2
 -3.274962925064535e-06    8    5    7    3
 -4.107353314405798e-05    8    5    7    4
 1.884197833440322e-05    8    5    7    5
 -1.717823953011548e-05    8    5    7    6
 7.507812451517904e-05    8    5    7    7
 0.00181565898333632    8    5    8    1
 0.001790148227092216    8    5    8    2
 0.0004978388835453514    8    5    8    3
 0.004405571816519287    8    5    8    4
 0.0249906725379654    8    5    8    5
 -7.709157781764665e-05    8    6    1    1
 -0.0002315963419994424    8    6    2    1
 -3.562240702095153e-05    8    6    2    2
 8.090416921271403e-08    8    6    3    1
 -4.572101537856017e-06    8    6    3    2
 0.0004902196590155556    8    6    3    3
 4.401472072803771e-06    8    6    4    1
 5.686535918446402e-06    8    6    4    2
 -7.75448624920477e-05    8    6    4    3
 -5.140244576251387e-06    8    6    4    4
 6.402104417349578e-05    8    6    5    1
 -7.231920377219226e-05    8    6    5    2
 6.0588389787902e-06    8    6    5    3
 1.295151785178877e-05    8    6    5    4
 2.003353367109632e-05    8    6    5    5
 1.596477079613698e-05    8    6    6    1
 -7.360453244821826e-05    8    6    6    2
 1.884400384208625e-05    8    6    6    3
 -1.917771645985059e-05    8    6    6    4
 0.0002678366081478822    8    6    6    5
 0.0001001397412387827    8    6    6    6
 -9.858937924225319e-07    8    6    7    1
 1.125784880097141e-05    8    6    7    2
 -2.498818020333641e-06    8    6    7    3
 -5.595004402011365e-06    8    6    7    4
 -1.225869297423885e-05    8    6    7    5
 -1.687505084712029e-05    8    6    7    6
 -4.038987142286991e-05    8    6    7    7
 -0.0006769964471162963    8    6    8    1
 -0.006580685927019871    8    6    8    2
 -2.100228710105707e-05    8    6    8    3
 -0.0001386547969501901    8    6    8    4
 -0.0007849233924834282    8    6    8    5
 0.0177247321865275    8    6    8    6
 -7.533933747909449e-05    8    7    1    1
 0.0002266841175989679    8    7    2    1
 -0.0001053990772536927    8    7    2    2
 4.641715419680135e-06    8    7    3    1
 1.323546419294851e-06    8    7    3    2
 -0.0008751572977130289    8    7    3    3
 1.611563353628875e-05    8    7    4    1
 1.304377092242244e-05    8    7    4    2
 0.0001145279613917669    8    7    4    3
 -8.247881420516019e-05    8    7    4    4
 -2.325357097876515e-05    8    7    5    1
 4.841291918975232e-05    8    7    5    2
 -1.476448550020084e-05    8    7    5    3
 -5.698898495513386e-05    8    7    5    4
 -4.568580396144383e-05    8    7    5    5
 4.910260285545078e-06    8    7    6    1
 2.129688050886506e-05    8    7    6    2
 -3.226647552130854e-06    8    7    6    3
 -3.423787528761295e-05    8    7    6    4
 -0.0001993341419127658    8    7    6    5
 -0.0001432957618300437    8    7    6    6
 9.135831543056976e-06    8    7    7    1
 1.632596452584484e-05    8    7    7    2
 5.235026384839674e-05    8    7    7    3
 0.0002096068577601911    8    7    7    4
 -3.179985859550671e-05    8    7    7    5
 6.883607195197884e-06    8    7    7    6
 -2.607284311925164e-05    8    7    7    7
 0.0001052250234388367    8    7    8    1
 -0.0002880260091300329    8    7    8    2
 -0.0003173861200385841    8    7    8    3
 -0.002374431815725833    8    7    8    4
 0.0006435058598631746    8    7    8    5
 0.000164053004606106    8    7    8    6
 0.01074735450920941    8    7    8    7
 0.4942934468152068    8    8    1    1
 0.01293780245278972    8    8    2    1
 0.4920816515632938    8    8    2    2
 0.001356859562707387    8    8    3    1
 0.000221768635419636    8    8    3    2
 0.1031065291956186    8    8    3    3
 0.008838484618745743    8    8    4    1
 0.001875528868333039    8    8    4    2
 0.01117820610618721    8    8    4    3
 0.1816055929555003    8    8    4    4
 -0.02995898827905935    8    8    5    1
 -0.0001928552604714539    8    8    5    2
 0.004201104569851928    8    8    5    3
 0.04137622656506384    8    8    5    4
 0.4184076149055048    8    8    5    5
 -0.001722837066194158    8    8    6    1
 0.04182274228413113    8    8    6    2
 -0.0002305336688197541    8    8    6    3
 -0.00153563482252613    8    8    6    4
 -0.01417262691262677    8    8    6    5
 0.429798786350729    8    8    6    6
 -0.01109138900701741    8    8    7    1
 0.0005422930273897356    8    8    7    2
 -0.009665218893021764    8    8    7    3
 -0.0701393984002598    8    8    7    4
 0.026660453349927    8    8    7    5
 0.001894728814647079    8    8    7    6
 0.3481597932257953    8    8    7    7
 -4.658415837385891e-05    8    8    8    1
 -5.545833538729615e-05    8    8    8    2
 0.0003644237685881856    8    8    8    3
 -0.0006903418604748291    8    8    8    4
 9.754242202299483e-05    8    8    8    5
 -2.816199068330673e-05    8    8    8    6
 -5.609846712536191e-05    8    8    8    7
 0.4691153088496077    8    8    8    8
 -0.01641640110137144    9    1    1    1
 -0.0004927618988057988    9    1    2    1
 -0.02145037482186547    9    1    2    2
 0.0005600427928064983    9    1    3    1
 9.916888425756611e-05    9    1    3    2
 -0.001879547019146593    9    1    3    3
 0.004620869440661706    9    1    4    1
 0.0007180681739381968    9    1    4    2
 -0.0005550052821992734    9    1    4    3
 -0.005620362950170761    9    1    4    4
 0.00434995921542839    9    1    5    1
 0.000861243606262558    9    1    5    2
 -0.0002417570012737401    9    1    5    3
 -0.00154066241077598    9    1    5    4
 -0.006112917692344094    9    1    5    5
 0.0001620086898402256    9    1    6    1
 -0.01429268912859556    9    1    6    2
 -3.676519295415502e-05    9    1    6    3
 -0.0002602091108583707    9    1    6    4
 0.0002301905217955605    9    1    6    5
 -0.007267663703577605    9    1    6    6
 -0.02801622921684599    9    1    7    1
 -0.0035786620020833    9    1    7    2
 0.0002694750662730807    9    1    7    3
 0.001721479961668028    9    1    7    4
 -0.004392627240988394    9    1    7    5
 0.0004891070377446758    9    1    7    6
 -0.008776024055973337    9    1    7    7
 4.289845374990563e-05    9    1    8    1
 0.0001725879298532301    9    1    8    2
 -1.320079354573866e-05    9    1    8    3
 3.874073503042969e-05    9    1    8    4
 9.779038716426623e-05    9    1    8    5
 -1.39980146671388e-05    9    1    8    6