 &FCI NORB=  21,NELEC=32,MS2=0,
  ORBSYM=1,1,1,1,1,1,1,1,1,1,1,1,1,1,1,1,1,1,1,1,1,
  ISYM=1,
 &END
 0.7664293776335114    1    1    1    1
 -0.01305722909062769    2    1    1    1
 0.0009610687408266894    2    1    2    1
 0.2230418822506257    2    2    1    1
 0.006544142782958749    2    2    2    1
 0.5244441370652466    2    2    2    2
 0.0008200661834725596    3    1    1    1
 -0.0001753702783262068    3    1    2    1
 -0.001939872135679909    3    1    2    2
 0.0002996628164814436    3    1    3    1
 -0.011554738802353    3    2    1    1
 -0.001276429776609702    3    2    2    1
 0.008046987050021381    3    2    2    2
 0.004041018797742834    3    2    3    1
 0.2161393137587466    3    2    3    2
 0.2067816954108967    3    3    1    1
 0.006832337256381105    3    3    2    1
 0.5121685924828595    3    3    2    2
 -0.002260293565871258    3    3    3    1
 -0.03038150360314451    3    3    3    2
 0.5284190994894049    3    3    3    3
 -0.01107144781395044    4    1    1    1
 -0.001192934637158998    4    1    2    1
 0.000955395711227556    4    1    2    2
 0.0003949636819585636    4    1    3    1
 0.001143507678552245    4    1    3    2
 0.002006283706472075    4    1    3    3
 0.00626156960175023    4    1    4    1
 -0.05990450069509468    4    2    1    1
 0.00191147929441302    4    2    2    1
 0.01740306457786274    4    2    2    2
 2.990521344886963e-05    4    2    3    1
 -0.005890019542437909    4    2    3    2
 0.04177420207014838    4    2    3    3
 0.001169960884422522    4    2    4    1
 0.05964210084998029    4    2    4    2
 0.003391085636947316    4    3    1    1
 -0.0004861751111918935    4    3    2    1
 -0.0128764738853787    4    3    2    2
 0.001936281115193157    4    3    3    1
 0.06913679961723343    4    3    3    2
 -0.01878372314695606    4    3    3    3
 0.001455526066412151    4    3    4    1
 0.002713677735284687    4    3    4    2
 0.04157556686906483    4    3    4    3
 0.3728369947599915    4    4    1    1
 0.0004797622720977973    4    4    2    1
 0.4026235950840176    4    4    2    2
 4.870712350582909e-05    4    4    3    1
 0.0001852918716025165    4    4    3    2
 0.3732310979070269    4    4    3    3
 0.004531263100458954    4    4    4    1
 -0.07875679984149776    4    4    4    2
 0.005729204843382955    4    4    4    3
 0.5666476006984293    4    4    4    4
 -0.00103187921774584    5    1    1    1
 5.001330934607427e-05    5    1    2    1
 -0.0001505881767667154    5    1    2    2
 -1.190714641472457e-05    5    1    3    1
 -2.180132728079629e-06    5    1    3    2
 -0.0001309996517148556    5    1    3    3
 -8.697428373814581e-05    5    1    4    1
 0.0001015705457518323    5    1    4    2
 -3.836594221217733e-05    5    1    4    3
 -0.0004847425255416049    5    1    4    4
 2.045203281234026e-05    5    1    5    1
 0.001041127136295714    5    2    1    1
 -5.810524938430913e-06    5    2    2    1
 0.001611825608497231    5    2    2    2
 -1.307303959401381e-05    5    2    3    1
 0.0001575583334712983    5    2    3    2
 0.001128377615843618    5    2    3    3
 2.89570220645503e-06    5    2    4    1
 -0.0007702349937700479    5    2    4    2
 -0.0002417972824425264    5    2    4    3
 0.001981252037956503    5    2    4    4
 -7.924667838061207e-06    5    2    5    1
 6.293029007250862e-05    5    2    5    2
 -9.236361545705007e-06    5    3    1    1
 -2.965875343197655e-06    5    3    2    1
 0.0002934650389268698    5    3    2    2
 -1.1945934581712e-05    5    3    3    1
 6.795137427697785e-05    5    3    3    2
 7.749908980435168e-05    5    3    3    3
 -3.039080058837471e-05    5    3    4    1
 -0.0002617799181403704    5    3    4    2
 -0.0003774470693255291    5    3    4    3
 3.843225458628426e-05    5    3    4    4
 5.487471572688963e-07    5    3    5    1
 1.087570462936788e-05    5    3    5    2
 2.769205256151417e-05    5    3    5    3
 -0.002593758782092556    5    4    1    1
 5.905456922531771e-06    5    4    2    1
 -0.00319114268310457    5    4    2    2
 -1.653299007924765e-05    5    4    3    1
 -0.000432325031134539    5    4    3    2
 -0.002776537791393551    5    4    3    3
 -9.112868705141934e-05    5    4    4    1
 0.0009670251742336408    5    4    4    2
 -0.0001896798571368395    5    4    4    3
 -0.005132188776348278    5    4    4    4
 2.271752925826279e-05    5    4    5    1
 -5.923202347442343e-05    5    4    5    2
 3.339192396616084e-07    5    4    5    3
 0.0001551858017076046    5    4    5    4
 0.1438385773593146    5    5    1    1
 0.0001108726317734978    5    5    2    1
 0.1508470649630145    5    5    2    2
 -0.0001298735639272569    5    5    3    1
 0.0007280609685463985    5    5    3    2
 0.1477263835775725    5    5    3    3
 0.0003129543298844746    5    5    4    1
 -0.005219036758896387    5    5    4    2
 -0.0002045305010411509    5    5    4    3
 0.1558686283539049    5    5    4    4
 0.0006979262079161233    5    5    5    1
 -0.001332801478770521    5    5    5    2
 -3.039592257971066e-05    5    5    5    3
 0.004683952811017297    5    5    5    4
 0.5618169521515314    5    5    5    5
 -0.00336157175228733    6    1    1    1
 0.0009232060971798645    6    1    2    1
 0.0008207126417470267    6    1    2    2
 -0.00036205856945183    6    1    3    1
 0.005188951458301716    6    1    3    2
 0.001434190199926542    6    1    3    3
 -0.003283839004160707    6    1    4    1
 0.004035558775002737    6    1    4    2
 0.001978279155016532    6    1    4    3
 -0.008495193364590883    6    1    4    4
 6.214415603098697e-05    6    1    5    1
 -5.490298824844526e-05    6    1    5    2
 -1.261728025209412e-05    6    1    5    3
 0.000100523640980457    6    1    5    4
 -0.0007812422180090339    6    1    5    5
 0.003275990282928198    6    1    6    1
 0.008886504086002599    6    2    1    1
 -0.0007317853798345384    6    2    2    1
 -0.05531632714631477    6    2    2    2
 0.001514148129068494    6    2    3    1
 -0.01205632831340846    6    2    3    2
 -0.02707094915281841    6    2    3    3
 0.002921135088646751    6    2    4    1
 0.01621908161623318    6    2    4    2
 0.02749965866245425    6    2    4    3
 -0.002175265273946764    6    2    4    4
 -6.312732901722921e-05    6    2    5    1
 -0.0008699865374811121    6    2    5    2
 -0.000726411229507825    6    2    5    3
 7.317246676785772e-05    6    2    5    4
 -0.002698837556783169    6    2    5    5
 0.0002131769814545771    6    2    6    1
 0.07319012330231217    6    2    6    2
 -0.02876305451670273    6    3    1    1
 0.00113066617578492    6    3    2    1
 -0.02112641567094964    6    3    2    2
 0.001645012249093923    6    3    3    1
 0.02642115106259331    6    3    3    2
 -0.005404066723807673    6    3    3    3
 0.00214679232097973    6    3    4    1
 0.0389206107382824    6    3    4    2
 0.02936896463256848    6    3    4    3
 -0.03374873320628231    6    3    4    4
 2.342182276810986e-05    6    3    5    1
 -0.0008818832564085857    6    3    5    2
 -0.0006277130582927416    6    3    5    3
 0.0003580102550533574    6    3    5    4
 -0.003767685639013982    6    3    5    5
 0.003463740629378496    6    3    6    1
 0.04574539865177892    6    3    6    2
 0.06402400591161309    6    3    6    3
 -0.09140365071392662    6    4    1    1
 0.003512327201259501    6    4    2    1
 0.03573719957849099    6    4    2    2
 0.001487551498078474    6    4    3    1
 0.08096702059712992    6    4    3    2
 0.04119282847913239    6    4    3    3
 -0.00203386870994644    6    4    4    1
 0.05054813873695968    6    4    4    2
 0.02074018780025067    6    4    4    3
 -0.08684107238643388    6    4    4    4
 0.0001960392809651276    6    4    5    1
 -0.0004432918613354352    6    4    5    2
 -5.220020903551486e-05    6    4    5    3
 0.0007749419212966813    6    4    5    4
 -0.004365094453290553    6    4    5    5
 0.008073566463272116    6    4    6    1
 -0.00649999563888469    6    4    6    2
 0.03784289769730378    6    4    6    3
 0.106782818130427    6    4    6    4
 0.0006226297700440902    6    5    1    1
 -7.559709639693113e-05    6    5    2    1
 -0.00258453854446744    6    5    2    2
 -1.822147387412251e-05    6    5    3    1
 -0.001874809850367055    6    5    3    2
 -0.002359353383025297    6    5    3    3
 4.242835493666329e-05    6    5    4    1
 -0.0005970291517882001    6    5    4    2
 -0.0003429749634078159    6    5    4    3
 -0.0003355448573761396    6    5    4    4
 -2.377189271121394e-06    6    5    5    1
 -1.643185163760445e-05    6    5    5    2
 -7.658520458222689e-06    6    5    5    3
 2.945994655462718e-05    6    5    5    4
 0.002345451507726455    6    5    5    5
 -0.000135051560635771    6    5    6    1
 0.0006621989482710817    6    5    6    2
 -0.0002963749472104476    6    5    6    3
 -0.001864624635960779    6    5    6    4
 7.269448301600553e-05    6    5    6    5
 0.2527577164142473    6    6    1    1
 0.004101229961276195    6    6    2    1
 0.4728389345319228    6    6    2    2
 0.001626119637396657    6    6    3    1
 0.1149403840053739    6    6    3    2
 0.4437760756329978    6    6    3    3
 0.003820622099897371    6    6    4    1
 -0.004350842434477448    6    6    4    2
 0.03650552711928105    6    6    4    3
 0.4287829401759209    6    6    4    4
 -0.0002583114477873981    6    6    5    1
 0.001551409613749333    6    6    5    2
 5.20291213880315e-05    6    6    5    3
 -0.003810723940064754    6    6    5    4
 0.1494793143706262    6    6    5    5
 0.001427270700320598    6    6    6    1
 -0.02967475373169357    6    6    6    2
 0.005286399845894345    6    6    6    3
 0.05676019980768321    6    6    6    4
 -0.003085745460744822    6    6    6    5
 0.527888755674899    6    6    6    6
 -0.006861780840934248    7    1    1    1
 0.0001869069288885188    7    1    2    1
 0.002951286588908527    7    1    2    2
 -0.0002376564898682303    7    1    3    1
 0.001987233085614912    7    1    3    2
 0.002655456412159534    7    1    3    3
 0.000407343738200182    7    1    4    1
 0.0003856451403725273    7    1    4    2
 0.0006813334423065453    7    1    4    3
 0.0008135506031054607    7    1    4    4
 1.851110237232856e-05    7    1    5    1
 -6.170092422087416e-08    7    1    5    2
 2.230299519055968e-07    7    1    5    3
 -4.441293913691511e-06    7    1    5    4
 0.0003701762868974197    7    1    5    5
 0.0008421976871008641    7    1    6    1
 -0.0003377363564827213    7    1    6    2
 0.000566249000691522    7    1    6    3
 0.002171209355666447    7    1    6    4
 -5.124326940894674e-05    7    1    6    5
 0.002820767414220259    7    1    6    6
 0.00123119903271546    7    1    7    1
 0.001344530643845484    7    2    1    1
 0.001819933005479264    7    2    2    1
 0.04122208801927843    7    2    2    2
 -0.000326549955473405    7    2    3    1
 -0.01830281036840543    7    2    3    2
 0.02994718945787189    7    2    3    3
 -0.000972748600193349    7    2    4    1
 0.005682734306730625    7    2    4    2
 0.004822830753412877    7    2    4    3
 0.01676629235101353    7    2    4    4
 9.017829613986936e-06    7    2    5    1
 4.589757067935639e-05    7    2    5    2
 -0.0002346863360849389    7    2    5    3
 -0.0001127033991600345    7    2    5    4
 0.002740429556152473    7    2    5    5
 0.0004698067778579064    7    2    6    1
 -0.005599904724082483    7    2    6    2
 0.006309019117319063    7    2    6    3
 -0.004983188019183044    7    2    6    4
 -2.672692003792767e-05    7    2    6    5
 0.0230135811814525    7    2    6    6
 0.0006004849329347556    7    2    7    1
 0.05193936880273718    7    2    7    2
 -0.01708252283816622    7    3    1    1
 -0.0001206723108585295    7    3    2    1
 -0.03167439114762132    7    3    2    2
 0.0005861916207885829    7    3    3    1
 -0.01562691094766398    7    3    3    2
 -0.01983466218420995    7    3    3    3
 0.001150708410270637    7    3    4    1
 0.01861067436247811    7    3    4    2
 -0.006018410268356225    7    3    4    3
 -0.02951827610602352    7    3    4    4
 1.545305705186054e-05    7    3    5    1
 -0.0004976721906336833    7    3    5    2
 -5.086766285729153e-05    7    3    5    3
 0.0003719334855654669    7    3    5    4
 -0.004002547273521769    7    3    5    5
 -0.0003775657124148666    7    3    6    1
 0.01557345706019099    7    3    6    2
 0.007050738737152534    7    3    6    3
 0.00191035773401568    7    3    6    4
 0.0002595056650368701    7    3    6    5
 -0.03623844779632387    7    3    6    6
 -0.001334361260480016    7    3    7    1
 -0.01066968712426168    7    3    7    2
 0.06211554620174926    7    3    7    3
 0.01339441673624215    7    4    1    1
 -0.000132205345974269    7    4    2    1
 0.01613628996150006    7    4    2    2
 0.0007621597287257385    7    4    3    1
 0.0376890295207041    7    4    3    2
 0.001312040776470173    7    4    3    3
 6.326180083731031e-05    7    4    4    1
 -0.009406356227058706    7    4    4    2
 0.01411536400728921    7    4    4    3
 0.02400045478179381    7    4    4    4
 -1.840517487883999e-05    7    4    5    1
 0.000209548374516701    7    4    5    2
 -3.971717449255361e-05    7    4    5    3
 -0.0003536722796488337    7    4    5    4
 0.002371182038595892    7    4    5    5
 0.0009620752642661324    7    4    6    1
 -0.006648201385159541    7    4    6    2
 0.004255865696251593    7    4    6    3
 0.008789587758627683    7    4    6    4
 -0.0003479938127610853    7    4    6    5
 0.03391047609333656    7    4    6    6
 0.001429875179356712    7    4    7    1
 0.01557855713808164    7    4    7    2
 -0.02094916205958207    7    4    7    3
 0.0243701616315804    7    4    7    4
 -0.0001308933013696293    7    5    1    1
 -8.068189703531683e-07    7    5    2    1
 -0.0003572440942509296    7    5    2    2
 -1.317140083644491e-05    7    5    3    1
 -0.0008962110142460681    7    5    3    2
 -0.0001594738517853715    7    5    3    3
 -2.493825126570542e-06    7    5    4    1
 0.0001572425433527841    7    5    4    2
 -0.0002579255332348812    7    5    4    3
 -0.0004455250390353953    7    5    4    4
 5.965822039383353e-07    7    5    5    1
 -2.823895620200068e-06    7    5    5    2
 -4.412578707054363e-06    7    5    5    3
 7.604928781314175e-06    7    5    5    4
 0.0001264153769181907    7    5    5    5
 -2.457979881672658e-05    7    5    6    1
 0.0001154615571346745    7    5    6    2
 -3.103238711249141e-05    7    5    6    3
 -0.0003077993997812558    7    5    6    4
 1.015809612529246e-05    7    5    6    5
 -0.0007951025873189351    7    5    6    6
 -2.433241639433401e-05    7    5    7    1
 4.23762731806355e-05    7    5    7    2
 0.0003294408351423337    7    5    7    3
 -0.0003432313499198408    7    5    7    4
 1.627381632108254e-05    7    5    7    5
 0.002186616992891602    7    6    1    1
 -0.0001372721608633942    7    6    2    1
 -0.003438357869856355    7    6    2    2
 0.0005684535212120156    7    6    3    1
 0.03073679145337487    7    6    3    2
 -0.00523874862621315    7    6    3    3
 0.0004894024951435234    7    6    4    1
 -0.003490336349753927    7    6    4    2
 0.01179702978407434    7    6    4    3
 0.003785770882490815    7    6    4    4
 -1.781913215594252e-05    7    6    5    1
 3.305261348438182e-05    7    6    5    2
 -1.432365394198464e-05    7    6    5    3
 -0.0001470101766973888    7    6    5    4
 -1.252385454274715e-05    7    6    5    5
 0.0007952090729456513    7    6    6    1
 0.004368259468490929    7    6    6    2
 0.00351407162997448    7    6    6    3
 0.01181561444082876    7    6    6    4
 -0.0002656324228086894    7    6    6    5
 0.01698974997321432    7    6    6    6
 0.0003946350278875303    7    6    7    1
 -0.004231898569477264    7    6    7    2
 -0.00585802891950435    7    6    7    3
 0.01060408121072752    7    6    7    4
 -0.0002780930051802443    7    6    7    5
 0.01887040530507882    7    6    7    6
 0.1995792053508941    7    7    1    1
 0.004990357762975847    7    7    2    1
 0.4335935946595306    7    7    2    2
 -0.00260232533132611    7    7    3    1
 -0.05118050663199808    7    7    3    2
 0.4561678842813241    7    7    3    3
 0.002455106986210036    7    7    4    1
 0.03605220696352276    7    7    4    2
 -0.03869386469584999    7    7    4    3
 0.3334133189364872    7    7    4    4
 -0.0001267550649374991    7    7    5    1
 0.0008544210054599391    7    7    5    2
 0.0003727834311615963    7    7    5    3
 -0.002287299960815933    7    7    5    4
 0.1422899953001958    7    7    5    5
 -0.0004051707034386483    7    7    6    1
 -0.02628482948437845    7    7    6    2
 -0.01580466647080131    7    7    6    3
 0.02283784675193798    7    7    6    4
 -0.00170224617633605    7    7    6    5
 0.3656564958885696    7    7    6    6
 0.0009310599515256583    7    7    7    1
 -0.01637370770743725    7    7    7    2
 0.02154143458411269    7    7    7    3
 -0.03150017939693248    7    7    7    4
 0.0001763554526868622    7    7    7    5
 -0.01666176508610371    7    7    7    6
 0.5009768591490293    7    7    7    7
 -0.003811956646954252    8    1    1    1
 -3.623263916442595e-05    8    1    2    1
 0.001824727116455455    8    1    2    2
 0.0002426682179001565    8    1    3    1
 -0.0008636122527245463    8    1    3    2
 0.001717353501211113    8    1    3    3
 0.0005204723250375147    8    1    4    1
 -5.542810911307109e-05    8    1    4    2
 -0.0002997705342923514    8    1    4    3
 0.0008267249910130017    8    1    4    4
 -0.0003639009824198947    8    1    5    1
 8.123713485779848e-05    8    1    5    2
 -1.767854171805915e-06    8    1    5    3
 -0.0002353060735456942    8    1    5    4
 -0.003569756770563373    8    1    5    5
 -0.0008050725376858064    8    1    6    1
 -0.0003630490095392582    8    1    6    2
 -0.0004372689417880602    8    1    6    3
 8.843747838310832e-05    8    1    6    4
 7.048846291496853e-05    8    1    6    5
 0.001272399729859295    8    1    6    6
 -0.000830080013072409    8    1    7    1
 0.0003354918702030415    8    1    7    2
 0.0003624757736560098    8    1    7    3
 -0.0006956661941461208    8    1    7    4
 -1.393576237527865e-05    8    1    7    5
 0.0001594805865866183    8    1    7    6
 0.001856166511400345    8    1    7    7
 0.009750855138157209    8    1    8    1
 -0.002593864855720113    8    2    1    1
 0.0002411163252703558    8    2    2    1
 -0.003780561963648319    8    2    2    2
 0.0001299472705651195    8    2    3    1
 0.008420042355034699    8    2    3    2
 -0.007557206436007545    8    2    3    3
 -0.0007112640122470978    8    2    4    1
 0.001749547919343648    8    2    4    2
 0.0004179794218264717    8    2    4    3
 0.0004281784051299584    8    2    4    4
 0.0001031707841842806    8    2    5    1
 -0.001299337039646095    8    2    5    2
 -0.0001649488432849864    8    2    5    3
 0.0004588313405594622    8    2    5    4
 0.01264698815032138    8    2    5    5
 0.0001729000883866589    8    2    6    1
 -0.001300541005003655    8    2    6    2
 0.00233241396122511    8    2    6    3
 0.001128742904086767    8    2    6    4
 0.0001640993641183499    8    2    6    5
 -0.000442475566780952    8    2    6    6
 -2.101553497665639e-05    8    2    7    1
 0.004091543542304447    8    2    7    2
 0.01539554806220664    8    2    7    3
 0.0001916363552665334    8    2    7    4
 4.084333881051137e-05    8    2    7    5
 -0.0005391595849099824    8    2    7    6
 -0.001723703726831608    8    2    7    7
 -0.001265665439418172    8    2    8    1
 0.05324641321482498    8    2    8    2
 0.00624692593963277    8    3    1    1
 0.0003741418901800503    8    3    2    1
 0.0156975393047405    8    3    2    2
 -0.0002830500832960016    8    3    3    1
 -0.01211223658179322    8    3    3    2
 0.01341914937094874    8    3    3    3
 -0.0004847592176865853    8    3    4    1
 -0.002613958560465486    8    3    4    2
 -0.0002364170234579449    8    3    4    3
 0.01233255189675026    8    3    4    4
 -1.007530605354466e-06    8    3    5    1
 -0.0001390546907935432    8    3    5    2
 -0.0008229710262195353    8    3    5    3
 -0.0001373381687044433    8    3    5    4
 0.00265149115374004    8    3    5    5
 -0.0003626834874528081    8    3    6    1
 -0.0005017295882683661    8    3    6    2
 -0.003765219424141248    8    3    6    3
 -0.005469038962878327    8    3    6    4
 0.0001613625170983217    8    3    6    5
 0.007071311631644643    8    3    6    6
 0.0001310566733601617    8    3    7    1
 0.01815748916250564    8    3    7    2
 -0.0005807094616416993    8    3    7    3
 0.005582921418910002    8    3    7    4
 0.0001368620851178506    8    3    7    5
 -0.0004006084289389575    8    3    7    6
 -0.006664320278051811    8    3    7    7
 5.591064381541499e-05    8    3    8    1
 0.01478394864848023    8    3    8    2
 0.04318563441845737    8    3    8    3
 -0.01470196949060903    8    4    1    1
 4.952158453426676e-05    8    4    2    1
 0.0008781756730103028    8    4    2    2
 -0.0001001810042188792    8    4    3    1
 -0.006144272936534372    8    4    3    2
 0.005468997688159685    8    4    3    3
 0.0009058168389078935    8    4    4    1
 0.0110216929474936    8    4    4    2
 -0.002302084190822963    8    4    4    3
 -0.02078559999165423    8    4    4    4
 -0.000148968603708095    8    4    5    1
 6.9755779792912e-05    8    4    5    2
 -6.565976227344296e-05    8    4    5    3
 -0.0004677761774925171    8    4    5    4
 -0.005970438019098937    8    4    5    5
 0.0001133989367838489    8    4    6    1
 0.0004540614639953341    8    4    6    2
 0.003015642553116608    8    4    6    3
 0.008414628820945009    8    4    6    4
 -3.390481281954528e-05    8    4    6    5
 -0.006376222928295014    8    4    6    6
 -0.0004302076587958611    8    4    7    1
 -0.0001504208997665964    8    4    7    2
 0.009580914092995241    8    4    7    3
 -0.00543826316177569    8    4    7    4
 0.0001194317962664646    8    4    7    5
 0.0009822857003203534    8    4    7    6
 0.01191497564990544    8    4    7    7
 0.004207865800269293    8    4    8    1
 -0.000788989436808914    8    4    8    2
 0.001976610819751577    8    4    8    3
 0.02273456702606934    8    4    8    4
 -0.004871601726809404    8    5    1    1
 -4.914518976431093e-05    8    5    2    1
 -0.00815327498372612    8    5    2    2
 2.236786277107187e-05    8    5    3    1
 -0.0004936357733985081    8    5    3    2
 -0.007708081199469804    8    5    3    3
 -7.91066692883524e-05    8    5    4    1
 0.0003945229755448422    8    5    4    2
 2.085609556245701e-05    8    5    4    3
 -0.007526087386547316    8    5    4    4
 1.56747200334218e-05    8    5    5    1
 -5.42006026007171e-05    8    5    5    2
 -6.569235089996497e-06    8    5    5    3
 0.0002073101889379005    8    5    5    4
 0.01311278481936763    8    5    5    5
 7.681034087838064e-05    8    5    6    1
 0.000808004864713425    8    5    6    2
 0.0005692751124665124    8    5    6    3
 3.188369197794404e-06    8    5    6    4
 0.0001341149174529369    8    5    6    5
 -0.007684046702438241    8    5    6    6
 -4.226378545835982e-05    8    5    7    1
 -0.0004030603071313889    8    5    7    2
 0.0007356819281521111    8    5    7    3
 -0.0003055527955503072    8    5    7    4
 2.626356978211514e-05    8    5    7    5
 -5.299715771598426e-05    8    5    7    6
 -0.00660536276696385    8    5    7    7
 -6.411049198240992e-05    8    5    8    1
 0.0002586449535713906    8    5    8    2
 -9.631814662194069e-05    8    5    8    3
 -1.758601682110072e-06    8    5    8    4
 0.0009097090369380308    8    5    8    5
 0.001582351440329379    8    6    1    1
 -0.0002397250973078846    8    6    2    1
 -0.006192996032943196    8    6    2    2
 7.215314690518589e-05    8    6    3    1
 0.003638400285368035    8    6    3    2
 -0.00637331393539946    8    6    3    3
 0.0002134225871553098    8    6    4    1
 -0.0008449351807645359    8    6    4    2
 0.001495354052011395    8    6    4    3
 0.001507641348960663    8    6    4    4
 7.751746055157154e-05    8    6    5    1
 8.620657514938639e-05    8    6    5    2
 6.01411664188383e-05    8    6    5    3
 1.565810126807648e-05    8    6    5    4
 0.0006643764239201644    8    6    5    5
 0.0002114193918019833    8    6    6    1
 0.002343236986928821    8    6    6    2
 0.001766906301509973    8    6    6    3
 -0.0006549143683821795    8    6    6    4
 -0.0003281488302920572    8    6    6    5
 -0.001886372787528505    8    6    6    6
 0.000327016001490952    8    6    7    1
 -0.001680784877872192    8    6    7    2
 0.001732774854160889    8    6    7    3
 0.002900873418788101    8    6    7    4
 -4.65080449481592e-05    8    6    7    5
 0.004522590913365835    8    6    7    6
 -0.003409929420028113    8    6    7    7
 -0.002160452155249696    8    6    8    1
 -0.004070466846824689    8    6    8    2
 -0.002480713752604532    8    6    8    3
 0.001516649244479629    8    6    8    4
 -2.065199275855844e-05    8    6    8    5
 0.01680004347041988    8    6    8    6
 -0.004974156063153355    8    7    1    1
 -0.0001480774812070364    8    7    2    1
 0.01078161861927612    8    7    2    2
 0.00102584317942144    8    7    3    1
 0.06075311225467835    8    7    3    2
 -4.441548734584327e-05    8    7    3    3
 0.0001172134480989144    8    7    4    1
 -0.001553309954441988    8    7    4    2
 0.02220660404870605    8    7    4    3
 0.0005063720073561796    8    7    4    4
 -1.717694318890097e-05    8    7    5    1
 0.0001382767492649946    8    7    5    2
 8.007909158844447e-05    8    7    5    3
 -7.566991143749326e-05    8    7    5    4
 0.000115455630698145    8    7    5    5
 0.001827461423745983    8    7    6    1
 -0.003193451569626004    8    7    6    2
 0.00895034127091209    8    7    6    3
 0.02398776493877599    8    7    6    4
 -0.0005634645497924109    8    7    6    5
 0.03836756047329183    8    7    6    6
 0.00107181379912552    8    7    7    1
 -0.0005147311267106863    8    7    7    2
 -0.02264543792880665    8    7    7    3
 0.01735861474542082    8    7    7    4
 -0.0006383211434722808    8    7    7    5
 0.009884209382829037    8    7    7    6
 -0.02307777194683354    8    7    7    7
 0.0003135270117450322    8    7    8    1
 -0.006879677696224113    8    7    8    2
 -0.007234402482042667    8    7    8    3
 -0.00603866771046724    8    7    8    4
 -0.000330387120162878    8    7    8    5
 0.0001368159744401288    8    7    8    6
 0.03888162720779571    8    7    8    7
 0.2621133557006532    8    8    1    1
 0.002952122448653421    8    8    2    1
 0.4384273581027502    8    8    2    2
 -0.0006832508893336586    8    8    3    1
 0.04703198802373652    8    8    3    2
 0.4239389061200032    8    8    3    3
 0.00261306476821848    8    8    4    1
 -0.001719889301197673    8    8    4    2
 0.005484633106436411    8    8    4    3
 0.3847302643429015    8    8    4    4
 -0.0001904108497334904    8    8    5    1
 0.001332430625174106    8    8    5    2
 0.0003042057617518053    8    8    5    3
 -0.002819283471476044    8    8    5    4
 0.1540710268921277    8    8    5    5
 -0.0007197397950235536    8    8    6    1
 -0.03345372452245797    8    8    6    2
 -0.01351817422223785    8    8    6    3
 0.02346682371876019    8    8    6    4
 -0.002047661427003599    8    8    6    5
 0.4248378696623232    8    8    6    6
 0.0023236257881402    8    8    7    1
 0.009483930390582481    8    8    7    2
 -0.03120382996897297    8    8    7    3
 0.01317808584633607    8    8    7    4
 -0.0005165133777640496    8    8    7    5
 0.003064528237217912    8    8    7    6
 0.376353797418196    8    8    7    7
 -0.0002369613839516907    8    8    8    1
 -0.008606545533224159    8    8    8    2
 -0.001888651740428562    8    8    8    3
 -0.005288696061208467    8    8    8    4
 -0.007714141120354882    8    8    8    5
 -0.003534592408509288    8    8    8    6
 0.02264475627907213    8    8    8    7
 0.4211257972118735    8    8    8    8
 0.006952664759287214    9    1    1    1
 -0.0006411311736356219    9    1    2    1
 -0.0004019246238279946    9    1    2    2
 -0.0001532467559402238    9    1    3    1
 -0.0003575535441391532    9    1    3    2
 -0.001359449111720573    9    1    3    3
 0.001766978279505424    9    1    4    1
 -0.003284425940424495    9    1    4    2
 0.0004329959861929423    9    1    4    3
 0.006781708364556727    9    1    4    4
 -0.0001788296990993425    9    1    5    1
 6.454293630168674e-05    9    1    5    2
 -4.338570702263135e-06    9    1    5    3
 -0.0001618326042817923    9    1    5    4
 -0.0006829142995706784    9    1    5    5
 -0.000253850323460823    9    1    6    1
 0.0005319780663517534    9    1    6    2
 -0.001207737773151755    9    1    6    3
 -0.003847484434955291    9    1    6    4
 8.464149816349526e-05    9    1    6    5
 0.0006950752163904577    9    1    6    6
 0.001112400072845689    9    1    7    1
 0.0002865452934654145    9    1    7    2
 -0.001855712626461953    9    1    7    3
 0.001259049964258935    9    1    7    4
 -1.919432219151064e-05    9    1    7    5
 -0.0002613258395168641    9    1    7    6
 -0.002254517973576803    9    1    7    7
 0.002798934876505921    9    1    8    1
 -0.0008997919335310326    9    1    8    2
 0.0002796545056161454    9    1    8    3
 0.0003846915987777793    9    1    8    4
 -8.028141248553847e-05    9    1    8    5
 -0.0006364701269062757    9    1    8    6
 0.0003738784895362207    9    1    8    7
 0.001180116692581164    9    1    8    8