 &FCI NORB=   4,NELEC= 6,MS2=0,
  ORBSYM=1,1,1,1,
  ISYM=1,
 &END
 0.4105103027672376    1    1    1    1
 -0.02547321871563173    2    1    1    1
 0.2474529849431179    2    1    2    1
 0.4073799655059605    2    2    1    1
 0.02741903468122086    2    2    2    1
 0.4164681090894843    2    2    2    2
 -0.02108614133555524    3    1    1    1
 0.003224279950966369    3    1    2    1
 -0.02155265771906874    3    1    2    2
 0.006028881837375436    3    1    3    1
 0.001498144013610841    3    2    1    1
 -0.0260524663680995    3    2    2    1
 -0.004189956572987647    3    2    2    2
 0.0006352574726036712    3    2    3    1
 0.003805591932150877    3    2    3    2
 0.1988614046918704    3    3    1    1
 0.02682552272189439    3    3    2    1
 0.1995553216555046    3    3    2    2
 0.03286362215927835    3    3    3    1
 0.002787055111720435    3    3    3    2
 0.5776153979405391    3    3    3    3
 0.002649368111727727    4    1    1    1
 -0.005389001624286329    4    1    2    1
 0.001958079479641043    4    1    2    2
 -0.001317029388631852    4    1    3    1
 0.0007063186360038031    4    1    3    2
 -0.004270455190923394    4    1    3    3
 0.001111037434778108    4    1    4    1
 -0.005329638800195808    4    2    1    1
 0.003956357814684707    4    2    2    1
 -0.004665785721395747    4    2    2    2
 0.000694501941603616    4    2    3    1
 -0.0009699328696632571    4    2    3    2
 -0.000353625321508776    4    2    3    3
 -0.0005305963160923951    4    2    4    1
 0.000915373089569752    4    2    4    2
 -0.0103307232109062    4    3    1    1
 0.006885156458201236    4    3    2    1
 -0.008673531062495791    4    3    2    2
 0.002047119329299241    4    3    3    1
 0.0001536208782504582    4    3    3    2
 0.03338018221511205    4    3    3    3
 0.002024908539293595    4    3    4    1
 2.499470574895447e-05    4    3    4    2
 0.05365240463308926    4    3    4    3
 0.1676689121034985    4    4    1    1
 0.0141518540421316    4    4    2    1
 0.167671634127397    4    4    2    2
 0.02046464387705027    4    4    3    1
 0.00159508953090827    4    4    3    2
 0.4190057630053462    4    4    3    3
 -0.0006851239892983474    4    4    4    1
 1.292495499046961e-05    4    4    4    2
 0.0747145514882932    4    4    4    3
 0.4327042806015217    4    4    4    4
 17.92928530722794    1    1  0  0
 0.1625735647151938    2    1  0  0
 17.59814195944841    2    2  0  0
 -0.5055156192702981    3    1  0  0
 -0.04499322188448157    3    2  0  0
 10.51538182867142    3    3  0  0
 -0.08000666214170948    4    1  0  0
 -0.09168446096758404    4    2  0  0
 -1.226440085330563    4    3  0  0
 7.866506129579905    4    4  0  0
 -1533.97401994404  0  0  0  0
