 &FCI NORB=   7,NELEC= 8,MS2=0,
  ORBSYM=1,1,1,1,1,1,1,
  ISYM=1,
 &END
 0.6374527114445731    1    1    1    1
 0.0002636283968065201    2    1    1    1
 0.2450265799886762    2    1    2    1
 0.6271892877334946    2    2    1    1
 -0.0002491578046884269    2    2    2    1
 0.6338711427575847    2    2    2    2
 0.05006966669074726    3    1    3    1
 1.624167024184236e-05    3    2    3    1
 0.06418527401183241    3    2    3    2
 0.5122993335962268    3    3    1    1
 2.477163815367593e-05    3    3    2    1
 0.5104597917092182    3    3    2    2
 0.4749666826542037    3    3    3    3
 0.05006966669074737    4    1    4    1
 1.62416702419167e-05    4    2    4    1
 0.06418527401183223    4    2    4    2
 0.01542888645431531    4    3    4    3
 0.5122993335962274    4    4    1    1
 2.477163815392498e-05    4    4    2    1
 0.5104597917092184    4    4    2    2
 0.4441089097455735    4    4    3    3
 0.4749666826542045    4    4    4    4
 -0.01378484763971162    5    1    3    1
 7.451446633859243e-06    5    1    3    2
 -0.01554695177106403    5    1    4    1
 8.403958060936075e-06    5    1    4    2
 0.02236488041207534    5    1    5    1
 9.426648820888625e-06    5    2    3    1
 0.009508537125237892    5    2    3    2
 1.063164848906393e-05    5    2    4    1
 0.01072400449850338    5    2    4    2
 6.391417189975726e-06    5    2    5    1
 0.03325360424144207    5    2    5    2
 -0.01139359232875421    5    3    1    1
 2.652864464142719e-06    5    3    2    1
 0.012833297256165    5    3    2    2
 -0.007373670746974243    5    3    3    3
 -0.0002441749401864679    5    3    4    3
 -0.006940670838378574    5    3    4    4
 0.0508798289950368    5    3    5    3
 -0.01285002453882842    5    4    1    1
 2.991977637678014e-06    5    4    2    1
 0.01447376559538859    5    4    2    2
 -0.007827890275133493    5    4    3    3
 -0.0002164999542979147    5    4    4    3
 -0.008316240155507377    5    4    4    4
 0.04430380684066447    5    4    5    3
 0.06156457245063028    5    4    5    4
 0.5083137292610205    5    5    1    1
 1.756618581816381e-05    5    5    2    1
 0.5176474826821577    5    5    2    2
 0.460806582668781    5    5    3    3
 0.0149273959187285    5    5    4    3
 0.4644066208421443    5    5    4    4
 0.01161138362627623    5    5    5    3
 0.01309565589343132    5    5    5    4
 0.499414189137652    5    5    5    5
 -1.711676887825167e-15    6    1    2    1
 -0.01554695177106409    6    1    3    1
 8.403958060885317e-06    6    1    3    2
 0.01378484763971145    6    1    4    1
 -7.451446633742803e-06    6    1    4    2
 0.02236488041207525    6    1    6    1
 -1.013283108070302e-15    6    2    1    1
 1.063164848906619e-05    6    2    3    1
 0.01072400449850333    6    2    3    2
 -9.426648820874273e-06    6    2    4    1
 -0.009508537125238192    6    2    4    2
 6.391417189868381e-06    6    2    6    1
 0.03325360424144223    6    2    6    2
 -0.01285002453882834    6    3    1    1
 2.991977637421664e-06    6    3    2    1
 0.01447376559538869    6    3    2    2
 -0.00831624015550664    6    3    3    3
 0.0002164999542981296    6    3    4    3
 -0.007827890275133908    6    3    4    4
 0.04430380684066449    6    3    5    3
 0.03836966929493394    6    3    5    4
 0.007757144206371139    6    3    5    5
 1.070119937441455e-15    6    3    6    2
 0.0615645724506304    6    3    6    3
 0.01139359232875373    6    4    1    1
 -2.65286446362584e-06    6    4    2    1
 -0.01283329725616556    6    4    2    2
 0.006940670838377933    6    4    3    3
 -0.0002441749401868297    6    4    4    3
 0.007373670746974351    6    4    4    4
 -0.0276849258393405    6    4    5    3
 -0.04430380684066462    6    4    5    4
 -0.006877943186465734    6    4    5    5
 -0.04430380684066464    6    4    6    3
 0.05087982899503701    6    4    6    4
 0.01492739591872877    6    5    3    3
 0.001800019086681502    6    5    4    3
 -0.01492739591872922    6    5    4    4
 0.002669255843529944    6    5    5    3
 -0.002366720219905727    6    5    5    4
 0.002366720219905327    6    5    6    3
 0.002669255843530412    6    5    6    4
 0.01808982219244802    6    5    6    5
 0.5083137292610207    6    6    1    1
 1.756618581827331e-05    6    6    2    1
 0.5176474826821582    6    6    2    2
 1.317202459646952e-15    6    6    3    2
 0.4644066208421443    6    6    3    3
 -1.032743662336036e-15    6    6    4    2
 -0.01492739591872947    6    6    4    3
 0.4608065826687817    6    6    4    4
 0.006877943186465358    6    6    5    3
 0.007757144206371364    6    6    5    4
 0.4632345447527566    6    6    5    5
 0.01309565589343184    6    6    6    3
 -0.01161138362627688    6    6    6    4
 0.4994141891376531    6    6    6    6
 0.0001749326379493973    7    1    1    1
 0.1247770322038173    7    1    2    1
 -0.0001035692713134834    7    1    2    2
 2.706292334929408e-05    7    1    3    3
 2.706292334940348e-05    7    1    4    4
 -2.29498610136859e-05    7    1    5    3
 -2.588352019981066e-05    7    1    5    4
 1.374604610926644e-05    7    1    5    5
 -2.588352019994042e-05    7    1    6    3
 2.294986101392897e-05    7    1    6    4
 1.374604610947438e-05    7    1    6    6
 0.08661927663619017    7    1    7    1
 0.08098743594835478    7    2    1    1
 -8.972500603760328e-05    7    2    2    1
 0.0503982681195325    7    2    2    2
 0.03171831136236358    7    2    3    3
 0.03171831136236407    7    2    4    4
 -0.04384538300186563    7    2    5    3
 -0.04945009714507831    7    2    5    4
 0.01026317556277895    7    2    5    5
 -0.04945009714507839    7    2    6    3
 0.04384538300186569    7    2    6    4
 0.0102631755627787    7    2    6    6
 -1.798155859057335e-05    7    2    7    1
 0.08267356598476061    7    2    7    2
 -6.655952915547547e-06    7    3    3    1
 -0.01401766821595255    7    3    3    2
 -9.654557851456856e-06    7    3    5    1
 -0.01991257975247401    7    3    5    2
 -1.088869091700108e-05    7    3    6    1
 -0.02245798612654529    7    3    6    2
 0.03165383463204474    7    3    7    3
 -6.655952915576764e-06    7    4    4    1
 -0.01401766821595222    7    4    4    2
 -1.088869091704393e-05    7    4    5    1
 -0.02245798612654525    7    4    5    2
 9.654557851374914e-06    7    4    6    1
 0.01991257975247406    7    4    6    2
 1.218499019059634e-15    7    4    7    2
 0.03165383463204454    7    4    7    4
 -2.0383581600933e-05    7    5    3    1
 -0.03622613269327939    7    5    3    2
 -2.298919569912711e-05    7    5    4    1
 -0.04085688522317026    7    5    4    2
 -7.630530202534207e-06    7    5    5    1
 -0.0235657106940127    7    5    5    2
 0.01577109655807018    7    5    7    3
 0.01778710102379069    7    5    7    4
 0.05809629551667237    7    5    7    5
 -2.298919569912731e-05    7    6    3    1
 -0.04085688522317038    7    6    3    2
 2.0383581600938e-05    7    6    4    1
 0.03622613269327944    7    6    4    2
 -7.630530202427996e-06    7    6    6    1
 -0.02356571069401302    7    6    6    2
 -1.384915206078256e-15    7    6    6    6
 0.01778710102379074    7    6    7    3
 -0.01577109655807014    7    6    7    4
 0.05809629551667272    7    6    7    6
 0.5371325308076578    7    7    1    1
 -2.564314436939719e-05    7    7    2    1
 0.5431252259098822    7    7    2    2
 0.4607496285383369    7    7    3    3
 1.450318859117926e-15    7    7    4    2
 0.4607496285383371    7    7    4    4
 0.007374842960784857    7    7    5    3
 0.008317562212308645    7    7    5    4
 0.4726900303491193    7    7    5    5
 -1.154893816499868e-15    7    7    6    2
 0.008317562212308735    7    7    6    3
 -0.007374842960785257    7    7    6    4
 0.4726900303491199    7    7    6    6
 9.95628534089521e-07    7    7    7    1
 0.04006299179216237    7    7    7    2
 1.128896518562333e-15    7    7    7    6
 0.496689099381608    7    7    7    7
 -5.388293955480584    1    1  0  0
 -7.838502335837143e-05    2    1  0  0
 -5.121655502519957    2    2  0  0
 -1.059565676687387e-15    3    1  0  0
 -3.998345358709883    3    3  0  0
 1.409267213109187e-15    4    1  0  0
 3.709687185804776e-15    4    3  0  0
 -3.998345358709886    4    4  0  0
 0.01388270907355728    5    3  0  0
 0.01565732274011295    5    4  0  0
 -3.475390019792866    5    5  0  0
 2.893299912759507e-15    6    2  0  0
 0.01565732274011109    6    3  0  0
 -0.01388270907354944    6    4  0  0
 1.829122587437633e-15    6    5  0  0
 -3.475390019792869    6    6  0  0
 -0.0001779476552744882    7    1  0  0
 -0.2425049248016106    7    2  0  0
 1.600067322021305e-15    7    4  0  0
 -3.389897234145549    7    7  0  0
 -164.3868174035661  0  0  0  0
