    1068
 i =       45, E =     -9644.9249249333
  O        -1.1859449387       -1.7780808471       -0.3942874417
  O        -1.9760084443       -1.4795439811        0.7882683745
  O        -1.8758524209       -0.5057561651       -0.2897592718
  O         2.8738209728       -1.1913165781        0.2983889299
  O         2.0657565108       -1.7489255468       -0.7752138592
  O         1.6741659613       -0.5019163525       -0.1098507566
  O         0.5850279130        2.0688274060       -0.7941513702
  O        -0.8783587203        2.0732887992       -0.8921700990
  O        -0.2011745545        2.9737463773        0.0089632720
  O         0.1002709001       -0.3882492397       -2.3609579678
  O        -0.0019311885       -0.6938124751       -3.7659058223
  O         0.2967200021        0.6675501084       -3.3523592564
  O        -0.2988155672        0.4919866221        3.3607103555
  O        -1.4805832429        0.7906255965        2.5707468144
  O        -0.1738968926        0.7896757008        1.9498362924
  O         4.4315424781        0.9893936516       -2.5673539141
  O         2.9754483028        0.8903624032       -2.4681700927
  O         3.7507154570        1.4781544177       -1.3874750705
  O         0.4001606575       -3.3479493704       -2.2691355836
  O        -0.2014328661       -4.4527515237       -2.9699189026
  O         0.3914980723       -3.3641903971       -3.7337073067
  O         3.6659833819        0.9836975975        1.7747469948
  O         2.4616304399        1.0897856655        2.5702384481
  O         2.5631593693        1.7772636002        1.2876010139
  O         0.7962777027       -2.6716822334        1.5530040779
  O        -0.1084858250       -2.4709768178        2.6711944310
  O         1.2026244437       -1.8679130303        2.6773206616
  O         3.7543932995       -2.1510168146        4.3381642721
  O         4.1453625478       -1.3866520692        3.1648524813
  O         3.6545498448       -0.6973769679        4.3459169796
  O         3.2589179577       -3.0553621432       -3.2589914094
  O         2.4936819113       -1.8840687041       -3.6552246209
  O         3.9358896850       -1.7828956064       -3.4586234668
  O         0.1004024513        3.2578276354       -3.5662572112
  O        -0.0997899117        4.3562084222       -2.6560397333
  O         0.1968311190        4.6353370890       -4.0479093790
  O        -2.8748176319       -4.0457104657       -0.5853844409
  O        -4.0425809555       -4.8268651729       -0.1954768022
  O        -3.7463769720       -3.5664042679        0.4812369482
  O         5.5274144373       -1.4833902471       -1.0850740027
  O         5.6273814637       -1.0942951831        0.3087127577
  O         6.2323310859       -0.2761429910       -0.7145207770
  O         4.5487687443       -4.3501016775       -0.8968663272
  O         3.1549715035       -4.3451437027       -0.4940639550
  O         4.1481460657       -3.6524225493        0.3047194270
  O         0.0198638019        3.4512141119        3.0500711798
  O        -1.2919432024        3.4575987051        3.6573316883
  O        -0.3000462860        4.4464666209        4.0521813854
  O        -2.5421439488       -1.7782788262        3.8671975859
  O        -3.6699455586       -2.1653777821        3.0573340410
  O        -3.5574679347       -0.7966831323        3.5546078833
  O         3.4492635512        0.1969112890       -5.8271213633
  O         2.0642518019       -0.2263855738       -5.9292552739
  O         2.3741588195        1.0937824095       -5.4291879552
  O         2.6631444826       -4.9384647530        4.2426058680
  O         1.3990792740       -4.7374615573        3.5517568017
  O         2.6544515205       -4.4456412226        2.8704604714
  O         2.5661443850        4.1513002822       -0.1034604941
  O         1.6798797131        5.2338927447       -0.4984903110
  O         1.8748680333        4.9371495926        0.9051467064
  O        -1.6815979791       -4.6484062511        2.1773260607
  O        -2.6656287483       -5.7187540664        2.2727152736
  O        -2.6631114581       -4.6461888899        3.2540368989
  O        -2.9593023391       -3.3496721181       -3.6492639400
  O        -2.3697181401       -2.3707357443       -4.5426958828
  O        -2.2776326246       -2.1845081723       -3.1029257955
  O        -3.4610518731        1.0841370348       -1.8866188240
  O        -3.8576870019        0.7905043165       -3.2534873558
  O        -2.4635994389        0.6906389491       -2.8656558995
  O        -0.8864964839       -0.0071800069       -6.2258675881
  O        -1.8722038407        0.7939452769       -5.5314194109
  O        -0.5985318244        1.3822870487       -5.9239130951
  O         1.8729896841        1.1922285119        5.4313106591
  O         0.6011106023        1.7785024152        5.8270836517
  O         1.6729905366        2.6286487443        5.3371810435
  O         0.9633200006       -2.7397008522        5.6289806101
  O        -0.3654430891       -2.1726927715        5.4361890261
  O         0.7823264548       -1.2971673498        5.6279688775
  O        -3.8503567369        2.3692381504        2.6626038380
  O        -3.1636716473        2.5727775246        1.3920329012
  O        -3.9488488768        3.6488407575        1.9714594201
  O        -5.5229850887       -2.4573114936       -1.4893309444
  O        -5.3425672583       -1.3873462959       -2.4721452393
  O        -4.4335240666       -1.4893252281       -1.3657526141
  O        -1.5803803168        6.5152718542        0.6940488482
  O        -0.9966766452        5.2442440745        1.0932832520
  O        -1.9636752401        5.9180228413        1.9620086998
  O         1.1851284757        6.7307365878        3.0635039687
  O         0.7190573151        7.9834633586        3.6456150777
  O         2.0561368452        7.8992742185        3.0653566381
  O         4.1501685757        3.8530531789       -3.2564432646
  O         2.9587022927        3.5616602050       -4.0385753208
  O         2.8729371956        4.4367662234       -2.8756631314
  O        -1.6840905599        0.4032781783        5.8242503327
  O        -3.0704932335        0.2941828381        6.2235593721
  O        -2.6589675735        1.3720895084        5.3350329904
  O        -2.5661484367        3.5517298100       -5.2443278704
  O        -2.8647943098        3.2685545437       -3.8528468957
  O        -2.8628266354        4.6401804648       -4.3410918694
  O        -6.4000287372       -0.7885674327       -5.5304840765
  O        -5.6299255950       -0.4929166042       -6.7198972004
  O        -4.9536265495       -0.5956867247       -5.4325417210
  O         7.4154648709       -0.1920774372       -5.1344915806
  O         6.6164101427       -1.2926594108       -5.6384198846
  O         6.1198768610       -0.4920448971       -4.5392754598
  O        -4.1498847065        4.1484612689        4.8287771188
  O        -4.5451314126        4.6466042362        6.1310899729
  O        -5.2287433237        5.1306292064        4.9448471720
  O        -2.7715092990       -1.8744892130       -7.1188562989
  O        -2.3497141063       -1.7791725853       -8.5101319213
  O        -3.7571904116       -1.6778213277       -8.1869858121
  O        -4.5578783021       -0.2027032461        1.0836971212
  O        -5.7136144134       -1.0721561861        1.2801831025
  O        -5.6316905932        0.1973603938        1.9800128822
  O         0.0009827989        3.8533999964       -6.7058926432
  O        -0.2990170103        4.0481832658       -8.1118397139
  O         0.4943551554        5.0370033575       -7.4072723241
  O        -1.5669413375       -7.1216854464       -5.0511318053
  O        -2.8666473607       -7.3091109351       -4.4435131112
  O        -2.0788309538       -6.1171172778       -4.1420678399
  O         0.3014054920        7.1103001774       -2.4708332738
  O        -0.5116968322        8.3056852450       -2.3661804503
  O         0.7973664130        8.3925930352       -2.9663179984
  O         6.2369271096        2.2874381096       -6.2402841700
  O         5.2246226402        2.2761918931       -5.2203403478
  O         5.8259228959        3.5462554492       -5.6305858583
  O        -5.9290578547        2.4593174382       -1.4946451550
  O        -6.2165746646        1.1238908061       -0.9858660379
  O        -5.7296888087        2.1678500482       -0.0924879246
  O        -2.5754114736        4.9286020832       -1.4751658642
  O        -3.1556108160        3.6472036406       -1.0928980968
  O        -3.6537247816        4.8656227689       -0.4935822235
  O         7.5121352301        1.0861009274        3.6533798664
  O         6.5197130955        0.4964401809        2.7678346096
  O         6.1187065100        1.4806844937        3.7519172854
  O         0.9662473035       -5.8263455571       -0.3960458031
  O        -0.4827476049       -5.7343711655       -0.5963612673
  O         0.1997329321       -4.7420112873        0.1993646683
  O        -5.9992154745       -3.6512316923        2.3694402839
  O        -7.2249179637       -4.2498262294        2.8618458817
  O        -7.2135043295       -3.5569343224        1.5837250648
  O         1.6577270605        0.0992679142       -8.7909979422
  O         0.3170789545       -0.4674026485       -8.6945311721
  O         0.4970733578        0.9769356077       -8.6923139004
  O        -3.3560987316        5.2312797471       -7.6109801607
  O        -4.6338805005        4.6622871304       -7.2031373462
  O        -4.1605520190        5.9170025125       -6.6190103710
  O         4.8387536054       -1.0755544884       -8.1999522027
  O         4.4514047117        0.0934553987       -8.9832738621
  O         5.5273692020        0.1916119845       -8.0037608661
  O        -4.8528467729       -3.5652101607       -5.5399987869
  O        -5.8199827133       -4.6253224366       -5.8304364705
  O        -5.7265823820       -3.4640447394       -6.7076026216
  O         3.5600711470       -7.1027438280       -4.6444357666
  O         3.2615920606       -5.9229432397       -3.8530296024
  O         4.2380944187       -5.8402700913       -4.9345305747
  O         3.7558772883        6.2213163609       -5.1364333356
  O         2.4706417088        5.9179502129       -5.7403710258
  O         2.5650347414        6.9342835488       -4.7250690082
  O         7.0927246596       -4.1451070399        3.2581391095
  O         5.7457285579       -4.5378929548        3.6470237546
  O         5.9343511913       -3.4684231677        2.6750197287
  O         4.5314173263       -2.4729146535        7.7014958117
  O         3.4624913682       -3.2586259566        8.3005182213
  O         3.3638389513       -2.8624860260        6.9099360523
  O         1.1934692184       -2.9616073274       -8.1039521235
  O        -0.1976184497       -3.3583416415       -8.0991701443
  O         0.3926745405       -2.7655394839       -6.9075457413
  O        -1.9686786640        8.7923546590        2.3650070514
  O        -3.3793324624        8.8927261109        2.6743734523
  O        -2.9577908841        8.7922490915        1.2924128049
  O         7.3099589578       -4.8479501132       -0.9098314908
  O         7.4089211795       -4.5420601493        0.5003591744
  O         7.8030153730       -3.5545160618       -0.4922037386
  O         6.4221173388        2.9659908649       -0.3994339827
  O         5.6194677882        2.2870384965        0.5947426782
  O         5.1471134114        3.5386859931        0.0048150295
  O        -3.7474226737        7.4086639585       -2.4822324828
  O        -4.3406688971        7.5102825805       -1.1732824591
  O        -2.9814848377        7.9963270992       -1.3894139440
  O         4.0460828655        3.2632205702        3.8442983575
  O         2.9553381205        4.1483527076        3.4632415382
  O         4.0657351231        3.9484831326        2.5635948497
  O        -1.4734511355        3.5614273413        6.5353223461
  O        -2.3796399946        3.9488766511        7.6073382838
  O        -0.9922166739        4.3434070728        7.6920237704
  O         1.5822023761        5.3391823315        5.6289973321
  O         0.6675718288        6.2239177636        6.3265407411
  O         2.0815002635        6.5179245709        6.3195670078
  O         5.4250106667        7.3130310871        0.5927925097
  O         4.1489608040        6.6201257431        0.4952225500
  O         4.1779693314        8.0657693525        0.6920648682
  O         3.8593194719       -3.5567265997       -7.4071187530
  O         3.5554041135       -2.9624347182       -6.1190369588
  O         4.9237932871       -3.3586527657       -6.4269104021
  O         5.6250633617        4.5492795715        6.5241504493
  O         4.1866382254        4.3592780993        6.4349998637
  O         4.7417054662        5.3234664664        7.3951000804
  O         1.7803673368       -5.5289545339       -6.5150681074
  O         0.3921448025       -5.9263123234       -6.6152696794
  O         0.8957101419       -5.3404752911       -5.3753916867
  O         1.6026934416        8.9072100635       -0.0073176386
  O         0.9796020082        7.6287782202        0.2994368476
  O         0.2902385133        8.8794355073        0.5958098906
  O        -3.5633515252       -8.4950686857        2.7657334609
  O        -4.9407978633       -8.4963904866        2.2782197583
  O        -3.8370887015       -8.3945067225        1.3441837473
  O         7.4254363843       -3.3652903155       -3.4665342169
  O         6.5300502603       -4.2322853873       -4.2311318658
  O         6.0142105076       -3.3637655881       -3.1660884000
  O        -2.1692875859       -5.1356263865       -7.2119002125
  O        -3.4605573105       -5.7262050683       -6.9167633575
  O        -3.3596080818       -4.6493534074       -7.8961003309
  O        -0.3263468241        7.0136707965       -5.2401199320
  O        -1.4758406732        6.6141807798       -6.0334548389
  O        -1.6742068922        7.2150909807       -4.7313550456
  O        -5.2410467168       -6.3314798907       -3.6624402444
  O        -6.2264056916       -5.5311956954       -2.9603835890
  O        -4.8317586530       -5.1275632396       -2.9591027047
  O         8.1853642830        2.4706570563       -2.3794869581
  O         7.1285519097        1.8158886681       -3.1514313686
  O         7.3133570570        3.2517040167       -3.2560597996
  O         2.1741451298       -8.4228373698        2.1633519037
  O         2.2698404480       -7.5979609681        3.3526289467
  O         1.7827439334       -7.0220800957        2.0978244997
  O        -1.5716260661        7.2111676755        4.7433425763
  O        -2.1718245210        6.2257781812        5.6288289652
  O        -2.9841537785        6.9126396283        4.6396677691
  O         5.3523356708        6.0179649441        4.1522017988
  O         4.1418519913        6.6239538587        4.6445345274
  O         4.5390676043        6.8183598933        3.2603665321
  O        -5.3495605034        2.4860828686       -4.9391801695
  O        -6.1281337117        2.1740888147       -6.1280213279
  O        -6.4913418177        3.3335907802       -5.3294988993
  O        -2.7684470633        1.1795291006       -8.3957540253
  O        -3.8399726642        1.7814452885       -7.6096812723
  O        -2.6731653573        2.5689677998       -7.9973613504
  O        -7.5149521237        0.8980183875       -3.8445454279
  O        -8.4887699536        0.7031964276       -2.7713432008
  O        -8.0979274822        2.0507651608       -3.1638210810
  O         0.9809803303       -8.1857982989       -3.9351838705
  O         0.0054126205       -8.3993120378       -2.8708914344
  O         0.6927270814       -7.1197498526       -2.9705741823
  O        -6.4215700192       -2.8641154086        5.3341498363
  O        -6.8010183319       -1.5876743150        5.9133216032
  O        -5.7538589746       -1.6602873398        4.8668235695
  O         2.9750897322       -8.9920127999       -1.5948255135
  O         1.9559418690       -8.8978968037       -0.5791517594
  O         2.8700770874       -7.7894549883       -0.7889599446
  O        -6.5775606648        2.6500937815        2.6522686870
  O        -8.0043717116        2.8635060919        2.8627475553
  O        -7.0248809673        3.6678588477        3.5697760659
  O         9.6937314910        0.9729422913        1.0951187285
  O         8.3022525759        1.0871435006        0.6909710055
  O         9.2779322487        2.0917139874        0.2873155868
  O        -8.7994130979       -2.4496737317       -0.2042668103
  O        -9.4840579771       -1.2971337313       -0.7877949268
  O        -8.0913736258       -1.1862410980       -0.3931910074
  O         1.8773336987       -1.0969407083        8.4961770165
  O         1.4928594872        0.2969716629        8.4913635017
  O         2.8476593203       -0.0956568088        8.1017269526
  O         9.0852579941       -1.2961827022       -1.2842454702
  O         8.4007821094       -1.0834539289       -2.5587146845
  O         9.0866025288        0.0099348731       -1.8846136282
  O        -2.4751084338       -8.4005992979       -1.4827929869
  O        -3.8410713208       -7.9047559173       -1.5799849771
  O        -2.7677816390       -7.0082467438       -1.1848673750
  O        -4.6418742306        6.4192045539        1.9751343222
  O        -5.7291544938        6.8205494435        2.8580279213
  O        -5.5338434695        7.5043437917        1.5872194124
  O         9.3603714172       -1.8709147979        1.4973809961
  O         7.9221830570       -1.5819582368        1.5876340597
  O         8.7945151490       -1.3879441381        2.7516712676
  O        -0.1992735855       -7.6051349167        4.7403857395
  O        -1.5709538824       -7.2056740854        5.0336776648
  O        -0.6978088620       -6.3289619155        4.2496178850
  O         4.4413807853       -6.2346286791        5.7153938410
  O         4.3516037614       -5.8208339958        7.1046154067
  O         5.1328688853       -5.0377000480        6.1432897755
  O        -5.8336840192       -6.8085084591       -0.2098365390
  O        -6.7118192535       -5.6417398702       -0.0987095286
  O        -6.2234034254       -6.3183889303        1.0936293111
  O        -7.4094246067        4.6401820594       -0.4876426800
  O        -7.0166695228        4.9346520778        0.8875187091
  O        -6.5153785012        5.7390481215       -0.2043624660
  O        -7.2137998824       -2.9723274897       -4.0345133837
  O        -7.7011691443       -3.2632681419       -2.6813954579
  O        -7.9067576209       -1.9583519533       -3.2598816446
  O         5.8349989162       -6.5318429927        1.4819940791
  O         4.8490348264       -7.5947055384        1.6770523094
  O         4.4240038591       -6.2157277633        1.4822429549
  O         5.6313013683       -7.2089089645       -1.2949477476
  O         5.2356208313       -7.8044763407       -2.5650224091
  O         5.9222558159       -6.5266637641       -2.5569210995
  O         7.0064440143       -1.4814928460        4.7555491644
  O         6.4232640343       -2.4823730690        5.6297827111
  O         6.2262972951       -1.0774014574        5.9212717835
  O        -3.0514311238       -3.8502648935        5.9121331945
  O        -3.9579260686       -4.0383809229        7.0228126669
  O        -3.6572485484       -2.6903579086        6.5243693503
  O        -5.2289875510        4.7407225551       -2.9646525398
  O        -6.6355575692        5.0395830632       -3.1593767359
  O        -5.6296234239        5.8251795133       -3.8513435040
  O         6.0266563599        1.6775894140        6.5190698019
  O         4.6396674682        1.4807131140        6.1218254407
  O         5.0392901851        1.2856374192        7.5077186076
  O        -0.8857613286       -8.7834664897        2.1417818553
  O        -0.5955194313       -8.8872304305        0.7134069741
  O        -0.9874399027       -7.6071030761        1.2855488473
  O        -4.3425333001       -6.4301407032        4.7378707952
  O        -5.4227505923       -6.3098337828        3.7678142439
  O        -5.1490008491       -5.2347019878        4.7329292645
  O         7.7072718643        3.6529255338        2.1714753950
  O         7.0114076711        4.1587913288        3.3389858221
  O         7.0136567651        4.9269653390        2.0936402642
  O         1.5540875578       -6.2117037264        6.4264422113
  O         0.3160364094       -5.5375431685        6.8116477748
  O         1.5813401810       -5.1375729420        7.4074579031
  O        -8.1010216910       -1.3910000724        3.2549650619
  O        -8.6933002851       -0.4023491877        2.3700035167
  O        -7.9966995025        0.0191291188        3.5648597239
  O        -5.5192246728        1.2861739815        5.1338032610
  O        -6.8289576373        1.1872090503        5.7369220749
  O        -5.8313526821        2.0722082197        6.3203958223
  O         3.8408981083        7.4906910187       -2.2719694137
  O         3.4562094943        8.8941701528       -2.2726811169
  O         4.8586467483        8.5095947761       -2.3721654059
  O         7.0100939191        5.7265550910       -1.3790098215
  O         5.6326228686        5.4321445328       -1.7742702244
  O         6.5229244177        6.1280798213       -2.6822323386
  O        -1.5845152799        0.2284957141        8.8880129871
  O        -2.3440454062        1.4724841058        8.7903177806
  O        -0.9004154219        1.4782838395        8.5955111641
  O        -0.2001924192       -2.7638516615        8.4959043338
  O        -1.1870774810       -3.6464260697        7.9037144371
  O        -1.5656292042       -2.2942873192        8.2911135114
  O         2.0757539880        4.1483794412        8.1015490082
  O         2.7477614307        2.8667303472        8.2002013268
  O         1.2984980639        2.9643594797        8.3957240424
  O        -4.1633533473       -0.8786680883        8.6899746240
  O        -5.3330787172       -0.5062657190        7.8952408544
  O        -4.8322377266        0.4009020039        8.8993186817
  O        -8.8827968217        1.4917248101        0.6879027535
  O        -9.7947186428        1.2719186005       -0.4071038106
  O        -8.9854723591        2.4712022822       -0.3876964472
  O         3.7558063888        2.4720228119       -7.8014868040
  O         2.3634556366        2.8611258151       -7.9066443351
  O         3.2668311363        3.6551325687       -7.1089250581
  C         7.2675271383       -0.8835875502      -11.0255231576
  C         6.0687863222       -1.2915139823      -11.6763830535
  C         5.3676190525       -0.1227028842      -12.0847630180
  C         6.1308373663        1.0076508287      -11.6800821699
  C         7.3066210016        0.5395667767      -11.0284254374
  C        13.1620454420       -1.4777041039        0.9748853225
  C        13.2340866293       -1.0382908302       -0.3769273912
  C        13.2787007256        0.3848598394       -0.3772472744
  C        13.2325373473        0.8251617206        0.9757089965
  C        13.1570684836       -0.3250082163        1.8092543184
  C         4.7082600877      -11.8495701723       -3.5709442414
  C         5.5156219127      -11.1579534259       -4.5176511268
  C         6.7132219977      -10.7541496640       -3.8614331745
  C         6.6432386583      -11.1935371122       -2.5098218986
  C         5.4059608149      -11.8720980598       -2.3307511270
  C        -6.4894698703       -5.9280299218       -9.8630334277
  C        -5.2470377690       -5.9588621370      -10.5580687760
  C        -4.5430480381       -7.1258308781      -10.1488949224
  C        -5.3465660410       -7.8132367313       -9.1972739923
  C        -6.5494162210       -7.0750618653       -9.0215933496
  C        -4.9394458986        8.1072076601       -9.1976832894
  C        -4.1694249163        7.3784910930      -10.1483013906
  C        -4.9315991841        6.2456335127      -10.5532819714
  C        -6.1737667756        6.2782397361       -9.8584989598
  C        -6.1766712038        7.4276799584       -9.0187587553
  C         7.2086301861       10.8649692424       -2.5094824932
  C         7.2479629273       10.4170698239       -3.8595395339
  C         6.0796149387       10.8916968910       -4.5189503720
  C         5.3151355052       11.6348266684       -3.5747976416
  C         6.0122926736       11.6150210359       -2.3320022434
  C        -7.1970301265        0.9114356850       11.1099596199
  C        -7.2344316401       -0.5106906016       11.1112027585
  C        -6.0608282294       -0.9815991013       11.7655265485
  C        -5.2998660912        0.1495551647       12.1717646129
  C        -6.0006997319        1.3193571352       11.7644511533
  C       -13.0932812254        0.3559449786       -1.7295950257
  C       -13.1555851643       -0.7942743004       -0.8941456619
  C       -13.2083811164       -0.3539033893        0.4582063303
  C       -13.1784677432        1.0701137953        0.4584750516
  C       -13.1124709809        1.5088750697       -0.8948940643
  C        -5.9380981301      -11.5766594768        2.4004829012
  C        -5.2407642231      -11.5906661194        3.6417703510
  C        -6.0111979821      -10.8568468286        4.5875270355
  C        -7.1855912851      -10.3897860886        3.9320754753
  C        -7.1402706865      -10.8356170241        2.5800267237
  C         6.2537935972       -7.4221093388        9.1001388531
  C         6.2432402679       -6.2672211532        9.9335181462
  C         5.0020668728       -6.2326894479       10.6294401028
  C         4.2402721772       -7.3619280534       10.2169952465
  C         5.0144565632       -8.0991797909        9.2757200615
  C         6.6316106092        7.1014077424        9.0966707846
  C         5.4294780678        7.8413561812        9.2742719833
  C         4.6233330694        7.1464608441       10.2195164422
  C         5.3258570491        5.9794571595       10.6309916149
  C         6.5661691332        5.9481496214        9.9338152145
  C        -5.3238910134       11.8932592436        2.4029707391
  C        -6.5588688786       11.2092698839        2.5816870929
  C        -6.6253399025       10.7662388748        3.9325793365
  C        -5.4299054993       11.1734979482        4.5871813982
  C        -4.6275254214       11.8759674894        3.6449969012
  C         7.2313431772       -2.9044112052       -9.6859659475
  C         7.0866852941       -4.8566049527       -8.2045955658
  C         6.9674761842       -6.8376233014       -6.7513318025
  C         6.8944168650       -8.8563848116       -5.3569093843
  C        12.0422129304       -3.0271947156       -1.0854298380
  C        10.6858726684       -4.9511113515       -1.7741306750
  C         9.3884622927       -6.9187009418       -2.4767437267
  C         8.1296386563       -8.9017934183       -3.1886000044
  C        12.1699516636       -1.0106887640       -2.5538323307
  C        10.9307102376       -0.9786086872       -4.6682100487
  C         9.7319165778       -0.9507908997       -6.8169799134
  C         8.5719748355       -0.9208639068       -8.9809803818
  C         8.6718561133       -3.0243277103       -7.6754120941
  C         9.9265202642       -3.0676470146       -5.5455717673
  C        11.0763619836       -3.0798470133       -3.3595481747
  C         8.5958706972       -5.0424721503       -6.2473136581
  C         9.8068853703       -5.0739516947       -4.0816325830
  C         8.4436366670       -7.0183434670       -4.7652634902
  C        11.3094911406       -3.7115812582       -2.0915646409
  C         9.9893002399       -5.6630290410       -2.7922890954
  C         8.7036530445       -7.6368089059       -3.4955568021
  C         7.3545011619       -9.5644144739       -4.1980679069
  C        11.4405663192       -1.7040854224       -3.5566791379
  C        10.2318695459       -1.6793230391       -5.6965448006
  C         9.0407054102       -1.6465400651       -7.8498723417
  C         7.7979775030       -1.6172137460       -9.9669336479
  C         7.7029237178       -3.6215464847       -8.5519744103
  C         9.0955188206       -3.7251919747       -6.5099328413
  C        10.3002344087       -3.7532896687       -4.3440000828
  C         7.5810738014       -5.5957405163       -7.0884900318
  C         8.9807352281       -5.7301228393       -5.0491602773
  C         7.4740388218       -7.5921790794       -5.6545027405
  C        12.5943313580       -1.7406702454       -1.3948284801
  C         6.0277450714       -3.3188216683      -10.3482596262
  C         5.8840639303       -5.2719882710       -8.8702230441
  C         5.7632911682       -7.2497408524       -7.4160525438
  C         5.6888170218       -9.2658627628       -6.0210391131
  C        -2.5467900970       -8.0298691216       -9.1134718576
  C        -0.5258479537       -8.8040806953       -7.9561442996
  C         1.4985080434       -9.6151640714       -6.8189677740
  C         3.5212929445      -10.4603610925       -5.7121837000
  C        -2.4327895680       -6.0192420942      -10.5878825154
  C        -0.3033661884       -4.8286706232      -10.8424779320
  C         1.8351381592       -3.6483569097      -11.1392342880
  C         3.9692570305       -2.4894493526      -11.4875076650
  C         3.9373088534       -4.6447637811      -10.2731054164
  C         1.7962020353       -5.8564718708      -10.0178327835
  C        -0.3604125293       -7.0120302712       -9.6645381287
  C         3.8411974694       -6.6780806199       -8.8723776982
  C         1.6854489269       -7.8769371487       -8.5752372914
  C         3.7103860486       -8.6412311020       -7.3791827255
  C        -1.1349031621       -7.9889289059       -8.9516171073